+ 1 0 2 tcp 40 ------- 2 0.0 5.0 0 0
- 1 0 2 tcp 40 ------- 2 0.0 5.0 0 0
r 1.010032 0 2 tcp 40 ------- 2 0.0 5.0 0 0
+ 1.010032 2 3 tcp 40 ------- 2 0.0 5.0 0 0
- 1.010032 2 3 tcp 40 ------- 2 0.0 5.0 0 0
r 1.030064 2 3 tcp 40 ------- 2 0.0 5.0 0 0
h 1.030064 3 7 tcp 40 ------- 2 0.0 5.0 0 0
+ 1.050064 3 7 tcp 40 ------- 2 0.0 5.0 0 0
- 1.050064 3 7 tcp 40 ------- 2 0.0 5.0 0 0
d 1.050068 6 7 tcp 40 ------- 2 0.0 5.0 0 0
d 1.050068 4 7 tcp 40 ------- 2 0.0 5.0 0 0
r 1.070068 7 5 tcp 40 ------- 2 0.0 5.0 0 0
h 1.070068 5 7 ack 40 ------- 2 5.0 0.0 0 1
+ 1.090068 5 7 ack 40 ------- 2 5.0 0.0 0 1
- 1.090068 5 7 ack 40 ------- 2 5.0 0.0 0 1
d 1.090072 6 7 ack 40 ------- 2 5.0 0.0 0 1
d 1.090072 4 7 ack 40 ------- 2 5.0 0.0 0 1
r 1.110072 7 3 ack 40 ------- 2 5.0 0.0 0 1
+ 1.110072 3 2 ack 40 ------- 2 5.0 0.0 0 1
- 1.110072 3 2 ack 40 ------- 2 5.0 0.0 0 1
r 1.130104 3 2 ack 40 ------- 2 5.0 0.0 0 1
+ 1.130104 2 0 ack 40 ------- 2 5.0 0.0 0 1
- 1.130104 2 0 ack 40 ------- 2 5.0 0.0 0 1
r 1.140136 2 0 ack 40 ------- 2 5.0 0.0 0 1
+ 1.140136 0 2 tcp 1040 ------- 2 0.0 5.0 1 2
- 1.140136 0 2 tcp 1040 ------- 2 0.0 5.0 1 2
+ 1.140136 0 2 tcp 1040 ------- 2 0.0 5.0 2 3
- 1.140968 0 2 tcp 1040 ------- 2 0.0 5.0 2 3
r 1.150968 0 2 tcp 1040 ------- 2 0.0 5.0 1 2
+ 1.150968 2 3 tcp 1040 ------- 2 0.0 5.0 1 2
- 1.150968 2 3 tcp 1040 ------- 2 0.0 5.0 1 2
r 1.1518 0 2 tcp 1040 ------- 2 0.0 5.0 2 3
+ 1.1518 2 3 tcp 1040 ------- 2 0.0 5.0 2 3
- 1.1518 2 3 tcp 1040 ------- 2 0.0 5.0 2 3
r 1.1718 2 3 tcp 1040 ------- 2 0.0 5.0 1 2
h 1.1718 3 7 tcp 1040 ------- 2 0.0 5.0 1 2
r 1.172632 2 3 tcp 1040 ------- 2 0.0 5.0 2 3
h 1.172632 3 7 tcp 1040 ------- 2 0.0 5.0 2 3
+ 1.1918 3 7 tcp 1040 ------- 2 0.0 5.0 1 2
- 1.1918 3 7 tcp 1040 ------- 2 0.0 5.0 1 2
d 1.191804 6 7 tcp 1040 ------- 2 0.0 5.0 1 2
d 1.191804 4 7 tcp 1040 ------- 2 0.0 5.0 1 2
+ 1.192632 3 7 tcp 1040 ------- 2 0.0 5.0 2 3
- 1.196216 3 7 tcp 1040 ------- 2 0.0 5.0 2 3
d 1.19622 6 7 tcp 1040 ------- 2 0.0 5.0 2 3
d 1.19622 4 7 tcp 1040 ------- 2 0.0 5.0 2 3
r 1.211804 7 5 tcp 1040 ------- 2 0.0 5.0 1 2
h 1.211804 5 7 ack 40 ------- 2 5.0 0.0 1 4
r 1.21622 7 5 tcp 1040 ------- 2 0.0 5.0 2 3
h 1.21622 5 7 ack 40 ------- 2 5.0 0.0 2 5
+ 1.231804 5 7 ack 40 ------- 2 5.0 0.0 1 4
- 1.231804 5 7 ack 40 ------- 2 5.0 0.0 1 4
d 1.231808 6 7 ack 40 ------- 2 5.0 0.0 1 4
d 1.231808 4 7 ack 40 ------- 2 5.0 0.0 1 4
+ 1.23622 5 7 ack 40 ------- 2 5.0 0.0 2 5
- 1.23622 5 7 ack 40 ------- 2 5.0 0.0 2 5
d 1.236224 6 7 ack 40 ------- 2 5.0 0.0 2 5
d 1.236224 4 7 ack 40 ------- 2 5.0 0.0 2 5
r 1.251808 7 3 ack 40 ------- 2 5.0 0.0 1 4
+ 1.251808 3 2 ack 40 ------- 2 5.0 0.0 1 4
- 1.251808 3 2 ack 40 ------- 2 5.0 0.0 1 4
r 1.256224 7 3 ack 40 ------- 2 5.0 0.0 2 5
+ 1.256224 3 2 ack 40 ------- 2 5.0 0.0 2 5
- 1.256224 3 2 ack 40 ------- 2 5.0 0.0 2 5
r 1.27184 3 2 ack 40 ------- 2 5.0 0.0 1 4
+ 1.27184 2 0 ack 40 ------- 2 5.0 0.0 1 4
- 1.27184 2 0 ack 40 ------- 2 5.0 0.0 1 4
r 1.276256 3 2 ack 40 ------- 2 5.0 0.0 2 5
+ 1.276256 2 0 ack 40 ------- 2 5.0 0.0 2 5
- 1.276256 2 0 ack 40 ------- 2 5.0 0.0 2 5
r 1.281872 2 0 ack 40 ------- 2 5.0 0.0 1 4
+ 1.281872 0 2 tcp 1040 ------- 2 0.0 5.0 3 6
- 1.281872 0 2 tcp 1040 ------- 2 0.0 5.0 3 6
+ 1.281872 0 2 tcp 1040 ------- 2 0.0 5.0 4 7
- 1.282704 0 2 tcp 1040 ------- 2 0.0 5.0 4 7
r 1.286288 2 0 ack 40 ------- 2 5.0 0.0 2 5
+ 1.286288 0 2 tcp 1040 ------- 2 0.0 5.0 5 8
- 1.286288 0 2 tcp 1040 ------- 2 0.0 5.0 5 8
+ 1.286288 0 2 tcp 1040 ------- 2 0.0 5.0 6 9
- 1.28712 0 2 tcp 1040 ------- 2 0.0 5.0 6 9
r 1.292704 0 2 tcp 1040 ------- 2 0.0 5.0 3 6
+ 1.292704 2 3 tcp 1040 ------- 2 0.0 5.0 3 6
- 1.292704 2 3 tcp 1040 ------- 2 0.0 5.0 3 6
r 1.293536 0 2 tcp 1040 ------- 2 0.0 5.0 4 7
+ 1.293536 2 3 tcp 1040 ------- 2 0.0 5.0 4 7
- 1.293536 2 3 tcp 1040 ------- 2 0.0 5.0 4 7
r 1.29712 0 2 tcp 1040 ------- 2 0.0 5.0 5 8
+ 1.29712 2 3 tcp 1040 ------- 2 0.0 5.0 5 8
- 1.29712 2 3 tcp 1040 ------- 2 0.0 5.0 5 8
r 1.297952 0 2 tcp 1040 ------- 2 0.0 5.0 6 9
+ 1.297952 2 3 tcp 1040 ------- 2 0.0 5.0 6 9
- 1.297952 2 3 tcp 1040 ------- 2 0.0 5.0 6 9
r 1.313536 2 3 tcp 1040 ------- 2 0.0 5.0 3 6
h 1.313536 3 7 tcp 1040 ------- 2 0.0 5.0 3 6
r 1.314368 2 3 tcp 1040 ------- 2 0.0 5.0 4 7
h 1.314368 3 7 tcp 1040 ------- 2 0.0 5.0 4 7
r 1.317952 2 3 tcp 1040 ------- 2 0.0 5.0 5 8
h 1.317952 3 7 tcp 1040 ------- 2 0.0 5.0 5 8
r 1.318784 2 3 tcp 1040 ------- 2 0.0 5.0 6 9
h 1.318784 3 7 tcp 1040 ------- 2 0.0 5.0 6 9
+ 1.333536 3 7 tcp 1040 ------- 2 0.0 5.0 3 6
- 1.333536 3 7 tcp 1040 ------- 2 0.0 5.0 3 6
d 1.33354 6 7 tcp 1040 ------- 2 0.0 5.0 3 6
d 1.33354 4 7 tcp 1040 ------- 2 0.0 5.0 3 6
+ 1.334368 3 7 tcp 1040 ------- 2 0.0 5.0 4 7
+ 1.337952 3 7 tcp 1040 ------- 2 0.0 5.0 5 8
- 1.337952 3 7 tcp 1040 ------- 2 0.0 5.0 4 7
d 1.337956 6 7 tcp 1040 ------- 2 0.0 5.0 4 7
d 1.337956 4 7 tcp 1040 ------- 2 0.0 5.0 4 7
+ 1.338784 3 7 tcp 1040 ------- 2 0.0 5.0 6 9
- 1.342368 3 7 tcp 1040 ------- 2 0.0 5.0 5 8
d 1.342372 6 7 tcp 1040 ------- 2 0.0 5.0 5 8
d 1.342372 4 7 tcp 1040 ------- 2 0.0 5.0 5 8
- 1.346784 3 7 tcp 1040 ------- 2 0.0 5.0 6 9
d 1.346788 6 7 tcp 1040 ------- 2 0.0 5.0 6 9
d 1.346788 4 7 tcp 1040 ------- 2 0.0 5.0 6 9
r 1.35354 7 5 tcp 1040 ------- 2 0.0 5.0 3 6
h 1.35354 5 7 ack 40 ------- 2 5.0 0.0 3 10
r 1.357956 7 5 tcp 1040 ------- 2 0.0 5.0 4 7
h 1.357956 5 7 ack 40 ------- 2 5.0 0.0 4 11
r 1.362372 7 5 tcp 1040 ------- 2 0.0 5.0 5 8
h 1.362372 5 7 ack 40 ------- 2 5.0 0.0 5 12
r 1.366788 7 5 tcp 1040 ------- 2 0.0 5.0 6 9
h 1.366788 5 7 ack 40 ------- 2 5.0 0.0 6 13
+ 1.37354 5 7 ack 40 ------- 2 5.0 0.0 3 10
- 1.37354 5 7 ack 40 ------- 2 5.0 0.0 3 10
d 1.373544 6 7 ack 40 ------- 2 5.0 0.0 3 10
d 1.373544 4 7 ack 40 ------- 2 5.0 0.0 3 10
+ 1.377956 5 7 ack 40 ------- 2 5.0 0.0 4 11
- 1.377956 5 7 ack 40 ------- 2 5.0 0.0 4 11
d 1.37796 6 7 ack 40 ------- 2 5.0 0.0 4 11
d 1.37796 4 7 ack 40 ------- 2 5.0 0.0 4 11
+ 1.382372 5 7 ack 40 ------- 2 5.0 0.0 5 12
- 1.382372 5 7 ack 40 ------- 2 5.0 0.0 5 12
d 1.382376 6 7 ack 40 ------- 2 5.0 0.0 5 12
d 1.382376 4 7 ack 40 ------- 2 5.0 0.0 5 12
+ 1.386788 5 7 ack 40 ------- 2 5.0 0.0 6 13
- 1.386788 5 7 ack 40 ------- 2 5.0 0.0 6 13
d 1.386792 6 7 ack 40 ------- 2 5.0 0.0 6 13
d 1.386792 4 7 ack 40 ------- 2 5.0 0.0 6 13
r 1.393544 7 3 ack 40 ------- 2 5.0 0.0 3 10
+ 1.393544 3 2 ack 40 ------- 2 5.0 0.0 3 10
- 1.393544 3 2 ack 40 ------- 2 5.0 0.0 3 10
r 1.39796 7 3 ack 40 ------- 2 5.0 0.0 4 11
+ 1.39796 3 2 ack 40 ------- 2 5.0 0.0 4 11
- 1.39796 3 2 ack 40 ------- 2 5.0 0.0 4 11
r 1.402376 7 3 ack 40 ------- 2 5.0 0.0 5 12
+ 1.402376 3 2 ack 40 ------- 2 5.0 0.0 5 12
- 1.402376 3 2 ack 40 ------- 2 5.0 0.0 5 12
r 1.406792 7 3 ack 40 ------- 2 5.0 0.0 6 13
+ 1.406792 3 2 ack 40 ------- 2 5.0 0.0 6 13
- 1.406792 3 2 ack 40 ------- 2 5.0 0.0 6 13
r 1.413576 3 2 ack 40 ------- 2 5.0 0.0 3 10
+ 1.413576 2 0 ack 40 ------- 2 5.0 0.0 3 10
- 1.413576 2 0 ack 40 ------- 2 5.0 0.0 3 10
r 1.417992 3 2 ack 40 ------- 2 5.0 0.0 4 11
+ 1.417992 2 0 ack 40 ------- 2 5.0 0.0 4 11
- 1.417992 2 0 ack 40 ------- 2 5.0 0.0 4 11
r 1.422408 3 2 ack 40 ------- 2 5.0 0.0 5 12
+ 1.422408 2 0 ack 40 ------- 2 5.0 0.0 5 12
- 1.422408 2 0 ack 40 ------- 2 5.0 0.0 5 12
r 1.423608 2 0 ack 40 ------- 2 5.0 0.0 3 10
+ 1.423608 0 2 tcp 1040 ------- 2 0.0 5.0 7 14
- 1.423608 0 2 tcp 1040 ------- 2 0.0 5.0 7 14
+ 1.423608 0 2 tcp 1040 ------- 2 0.0 5.0 8 15
- 1.42444 0 2 tcp 1040 ------- 2 0.0 5.0 8 15
r 1.426824 3 2 ack 40 ------- 2 5.0 0.0 6 13
+ 1.426824 2 0 ack 40 ------- 2 5.0 0.0 6 13
- 1.426824 2 0 ack 40 ------- 2 5.0 0.0 6 13
r 1.428024 2 0 ack 40 ------- 2 5.0 0.0 4 11
+ 1.428024 0 2 tcp 1040 ------- 2 0.0 5.0 9 16
- 1.428024 0 2 tcp 1040 ------- 2 0.0 5.0 9 16
+ 1.428024 0 2 tcp 1040 ------- 2 0.0 5.0 10 17
- 1.428856 0 2 tcp 1040 ------- 2 0.0 5.0 10 17
r 1.43244 2 0 ack 40 ------- 2 5.0 0.0 5 12
+ 1.43244 0 2 tcp 1040 ------- 2 0.0 5.0 11 18
- 1.43244 0 2 tcp 1040 ------- 2 0.0 5.0 11 18
+ 1.43244 0 2 tcp 1040 ------- 2 0.0 5.0 12 19
- 1.433272 0 2 tcp 1040 ------- 2 0.0 5.0 12 19
r 1.43444 0 2 tcp 1040 ------- 2 0.0 5.0 7 14
+ 1.43444 2 3 tcp 1040 ------- 2 0.0 5.0 7 14
- 1.43444 2 3 tcp 1040 ------- 2 0.0 5.0 7 14
r 1.435272 0 2 tcp 1040 ------- 2 0.0 5.0 8 15
+ 1.435272 2 3 tcp 1040 ------- 2 0.0 5.0 8 15
- 1.435272 2 3 tcp 1040 ------- 2 0.0 5.0 8 15
r 1.436856 2 0 ack 40 ------- 2 5.0 0.0 6 13
+ 1.436856 0 2 tcp 1040 ------- 2 0.0 5.0 13 20
- 1.436856 0 2 tcp 1040 ------- 2 0.0 5.0 13 20
+ 1.436856 0 2 tcp 1040 ------- 2 0.0 5.0 14 21
- 1.437688 0 2 tcp 1040 ------- 2 0.0 5.0 14 21
r 1.438856 0 2 tcp 1040 ------- 2 0.0 5.0 9 16
+ 1.438856 2 3 tcp 1040 ------- 2 0.0 5.0 9 16
- 1.438856 2 3 tcp 1040 ------- 2 0.0 5.0 9 16
r 1.439688 0 2 tcp 1040 ------- 2 0.0 5.0 10 17
+ 1.439688 2 3 tcp 1040 ------- 2 0.0 5.0 10 17
- 1.439688 2 3 tcp 1040 ------- 2 0.0 5.0 10 17
r 1.443272 0 2 tcp 1040 ------- 2 0.0 5.0 11 18
+ 1.443272 2 3 tcp 1040 ------- 2 0.0 5.0 11 18
- 1.443272 2 3 tcp 1040 ------- 2 0.0 5.0 11 18
r 1.444104 0 2 tcp 1040 ------- 2 0.0 5.0 12 19
+ 1.444104 2 3 tcp 1040 ------- 2 0.0 5.0 12 19
- 1.444104 2 3 tcp 1040 ------- 2 0.0 5.0 12 19
r 1.447688 0 2 tcp 1040 ------- 2 0.0 5.0 13 20
+ 1.447688 2 3 tcp 1040 ------- 2 0.0 5.0 13 20
- 1.447688 2 3 tcp 1040 ------- 2 0.0 5.0 13 20
r 1.44852 0 2 tcp 1040 ------- 2 0.0 5.0 14 21
+ 1.44852 2 3 tcp 1040 ------- 2 0.0 5.0 14 21
- 1.44852 2 3 tcp 1040 ------- 2 0.0 5.0 14 21
r 1.455272 2 3 tcp 1040 ------- 2 0.0 5.0 7 14
h 1.455272 3 7 tcp 1040 ------- 2 0.0 5.0 7 14
r 1.456104 2 3 tcp 1040 ------- 2 0.0 5.0 8 15
h 1.456104 3 7 tcp 1040 ------- 2 0.0 5.0 8 15
r 1.459688 2 3 tcp 1040 ------- 2 0.0 5.0 9 16
h 1.459688 3 7 tcp 1040 ------- 2 0.0 5.0 9 16
r 1.46052 2 3 tcp 1040 ------- 2 0.0 5.0 10 17
h 1.46052 3 7 tcp 1040 ------- 2 0.0 5.0 10 17
r 1.464104 2 3 tcp 1040 ------- 2 0.0 5.0 11 18
h 1.464104 3 7 tcp 1040 ------- 2 0.0 5.0 11 18
r 1.464936 2 3 tcp 1040 ------- 2 0.0 5.0 12 19
h 1.464936 3 7 tcp 1040 ------- 2 0.0 5.0 12 19
r 1.46852 2 3 tcp 1040 ------- 2 0.0 5.0 13 20
h 1.46852 3 7 tcp 1040 ------- 2 0.0 5.0 13 20
r 1.469352 2 3 tcp 1040 ------- 2 0.0 5.0 14 21
h 1.469352 3 7 tcp 1040 ------- 2 0.0 5.0 14 21
+ 1.475272 3 7 tcp 1040 ------- 2 0.0 5.0 7 14
- 1.475272 3 7 tcp 1040 ------- 2 0.0 5.0 7 14
d 1.475276 6 7 tcp 1040 ------- 2 0.0 5.0 7 14
d 1.475276 4 7 tcp 1040 ------- 2 0.0 5.0 7 14
+ 1.476104 3 7 tcp 1040 ------- 2 0.0 5.0 8 15
+ 1.479688 3 7 tcp 1040 ------- 2 0.0 5.0 9 16
- 1.479688 3 7 tcp 1040 ------- 2 0.0 5.0 8 15
d 1.479692 6 7 tcp 1040 ------- 2 0.0 5.0 8 15
d 1.479692 4 7 tcp 1040 ------- 2 0.0 5.0 8 15
+ 1.48052 3 7 tcp 1040 ------- 2 0.0 5.0 10 17
+ 1.484104 3 7 tcp 1040 ------- 2 0.0 5.0 11 18
- 1.484104 3 7 tcp 1040 ------- 2 0.0 5.0 9 16
d 1.484108 6 7 tcp 1040 ------- 2 0.0 5.0 9 16
d 1.484108 4 7 tcp 1040 ------- 2 0.0 5.0 9 16
+ 1.484936 3 7 tcp 1040 ------- 2 0.0 5.0 12 19
+ 1.48852 3 7 tcp 1040 ------- 2 0.0 5.0 13 20
- 1.48852 3 7 tcp 1040 ------- 2 0.0 5.0 10 17
d 1.488524 6 7 tcp 1040 ------- 2 0.0 5.0 10 17
d 1.488524 4 7 tcp 1040 ------- 2 0.0 5.0 10 17
+ 1.489352 3 7 tcp 1040 ------- 2 0.0 5.0 14 21
- 1.492936 3 7 tcp 1040 ------- 2 0.0 5.0 11 18
d 1.49294 6 7 tcp 1040 ------- 2 0.0 5.0 11 18
d 1.49294 4 7 tcp 1040 ------- 2 0.0 5.0 11 18
r 1.495276 7 5 tcp 1040 ------- 2 0.0 5.0 7 14
h 1.495276 5 7 ack 40 ------- 2 5.0 0.0 7 22
- 1.497352 3 7 tcp 1040 ------- 2 0.0 5.0 12 19
d 1.497356 6 7 tcp 1040 ------- 2 0.0 5.0 12 19
d 1.497356 4 7 tcp 1040 ------- 2 0.0 5.0 12 19
r 1.499692 7 5 tcp 1040 ------- 2 0.0 5.0 8 15
h 1.499692 5 7 ack 40 ------- 2 5.0 0.0 8 23
- 1.501768 3 7 tcp 1040 ------- 2 0.0 5.0 13 20
d 1.501772 6 7 tcp 1040 ------- 2 0.0 5.0 13 20
d 1.501772 4 7 tcp 1040 ------- 2 0.0 5.0 13 20
r 1.504108 7 5 tcp 1040 ------- 2 0.0 5.0 9 16
h 1.504108 5 7 ack 40 ------- 2 5.0 0.0 9 24
- 1.506184 3 7 tcp 1040 ------- 2 0.0 5.0 14 21
d 1.506188 6 7 tcp 1040 ------- 2 0.0 5.0 14 21
d 1.506188 4 7 tcp 1040 ------- 2 0.0 5.0 14 21
r 1.508524 7 5 tcp 1040 ------- 2 0.0 5.0 10 17
h 1.508524 5 7 ack 40 ------- 2 5.0 0.0 10 25
r 1.51294 7 5 tcp 1040 ------- 2 0.0 5.0 11 18
h 1.51294 5 7 ack 40 ------- 2 5.0 0.0 11 26
+ 1.515276 5 7 ack 40 ------- 2 5.0 0.0 7 22
- 1.515276 5 7 ack 40 ------- 2 5.0 0.0 7 22
d 1.51528 6 7 ack 40 ------- 2 5.0 0.0 7 22
d 1.51528 4 7 ack 40 ------- 2 5.0 0.0 7 22
r 1.517356 7 5 tcp 1040 ------- 2 0.0 5.0 12 19
h 1.517356 5 7 ack 40 ------- 2 5.0 0.0 12 27
+ 1.519692 5 7 ack 40 ------- 2 5.0 0.0 8 23
- 1.519692 5 7 ack 40 ------- 2 5.0 0.0 8 23
d 1.519696 6 7 ack 40 ------- 2 5.0 0.0 8 23
d 1.519696 4 7 ack 40 ------- 2 5.0 0.0 8 23
r 1.521772 7 5 tcp 1040 ------- 2 0.0 5.0 13 20
h 1.521772 5 7 ack 40 ------- 2 5.0 0.0 13 28
+ 1.524108 5 7 ack 40 ------- 2 5.0 0.0 9 24
- 1.524108 5 7 ack 40 ------- 2 5.0 0.0 9 24
d 1.524112 6 7 ack 40 ------- 2 5.0 0.0 9 24
d 1.524112 4 7 ack 40 ------- 2 5.0 0.0 9 24
r 1.526188 7 5 tcp 1040 ------- 2 0.0 5.0 14 21
h 1.526188 5 7 ack 40 ------- 2 5.0 0.0 14 29
+ 1.528524 5 7 ack 40 ------- 2 5.0 0.0 10 25
- 1.528524 5 7 ack 40 ------- 2 5.0 0.0 10 25
d 1.528528 6 7 ack 40 ------- 2 5.0 0.0 10 25
d 1.528528 4 7 ack 40 ------- 2 5.0 0.0 10 25
+ 1.53294 5 7 ack 40 ------- 2 5.0 0.0 11 26
- 1.53294 5 7 ack 40 ------- 2 5.0 0.0 11 26
d 1.532944 6 7 ack 40 ------- 2 5.0 0.0 11 26
d 1.532944 4 7 ack 40 ------- 2 5.0 0.0 11 26
r 1.53528 7 3 ack 40 ------- 2 5.0 0.0 7 22
+ 1.53528 3 2 ack 40 ------- 2 5.0 0.0 7 22
- 1.53528 3 2 ack 40 ------- 2 5.0 0.0 7 22
+ 1.537356 5 7 ack 40 ------- 2 5.0 0.0 12 27
- 1.537356 5 7 ack 40 ------- 2 5.0 0.0 12 27
d 1.53736 6 7 ack 40 ------- 2 5.0 0.0 12 27
d 1.53736 4 7 ack 40 ------- 2 5.0 0.0 12 27
r 1.539696 7 3 ack 40 ------- 2 5.0 0.0 8 23
+ 1.539696 3 2 ack 40 ------- 2 5.0 0.0 8 23
- 1.539696 3 2 ack 40 ------- 2 5.0 0.0 8 23
+ 1.541772 5 7 ack 40 ------- 2 5.0 0.0 13 28
- 1.541772 5 7 ack 40 ------- 2 5.0 0.0 13 28
d 1.541776 6 7 ack 40 ------- 2 5.0 0.0 13 28
d 1.541776 4 7 ack 40 ------- 2 5.0 0.0 13 28
r 1.544112 7 3 ack 40 ------- 2 5.0 0.0 9 24
+ 1.544112 3 2 ack 40 ------- 2 5.0 0.0 9 24
- 1.544112 3 2 ack 40 ------- 2 5.0 0.0 9 24
+ 1.546188 5 7 ack 40 ------- 2 5.0 0.0 14 29
- 1.546188 5 7 ack 40 ------- 2 5.0 0.0 14 29
d 1.546192 6 7 ack 40 ------- 2 5.0 0.0 14 29
d 1.546192 4 7 ack 40 ------- 2 5.0 0.0 14 29
r 1.548528 7 3 ack 40 ------- 2 5.0 0.0 10 25
+ 1.548528 3 2 ack 40 ------- 2 5.0 0.0 10 25
- 1.548528 3 2 ack 40 ------- 2 5.0 0.0 10 25
r 1.552944 7 3 ack 40 ------- 2 5.0 0.0 11 26
+ 1.552944 3 2 ack 40 ------- 2 5.0 0.0 11 26
- 1.552944 3 2 ack 40 ------- 2 5.0 0.0 11 26
r 1.555312 3 2 ack 40 ------- 2 5.0 0.0 7 22
+ 1.555312 2 0 ack 40 ------- 2 5.0 0.0 7 22
- 1.555312 2 0 ack 40 ------- 2 5.0 0.0 7 22
r 1.55736 7 3 ack 40 ------- 2 5.0 0.0 12 27
+ 1.55736 3 2 ack 40 ------- 2 5.0 0.0 12 27
- 1.55736 3 2 ack 40 ------- 2 5.0 0.0 12 27
r 1.559728 3 2 ack 40 ------- 2 5.0 0.0 8 23
+ 1.559728 2 0 ack 40 ------- 2 5.0 0.0 8 23
- 1.559728 2 0 ack 40 ------- 2 5.0 0.0 8 23
r 1.561776 7 3 ack 40 ------- 2 5.0 0.0 13 28
+ 1.561776 3 2 ack 40 ------- 2 5.0 0.0 13 28
- 1.561776 3 2 ack 40 ------- 2 5.0 0.0 13 28
r 1.564144 3 2 ack 40 ------- 2 5.0 0.0 9 24
+ 1.564144 2 0 ack 40 ------- 2 5.0 0.0 9 24
- 1.564144 2 0 ack 40 ------- 2 5.0 0.0 9 24
r 1.565344 2 0 ack 40 ------- 2 5.0 0.0 7 22
+ 1.565344 0 2 tcp 1040 ------- 2 0.0 5.0 15 30
- 1.565344 0 2 tcp 1040 ------- 2 0.0 5.0 15 30
+ 1.565344 0 2 tcp 1040 ------- 2 0.0 5.0 16 31
- 1.566176 0 2 tcp 1040 ------- 2 0.0 5.0 16 31
r 1.566192 7 3 ack 40 ------- 2 5.0 0.0 14 29
+ 1.566192 3 2 ack 40 ------- 2 5.0 0.0 14 29
- 1.566192 3 2 ack 40 ------- 2 5.0 0.0 14 29
r 1.56856 3 2 ack 40 ------- 2 5.0 0.0 10 25
+ 1.56856 2 0 ack 40 ------- 2 5.0 0.0 10 25
- 1.56856 2 0 ack 40 ------- 2 5.0 0.0 10 25
r 1.56976 2 0 ack 40 ------- 2 5.0 0.0 8 23
+ 1.56976 0 2 tcp 1040 ------- 2 0.0 5.0 17 32
- 1.56976 0 2 tcp 1040 ------- 2 0.0 5.0 17 32
+ 1.56976 0 2 tcp 1040 ------- 2 0.0 5.0 18 33
- 1.570592 0 2 tcp 1040 ------- 2 0.0 5.0 18 33
r 1.572976 3 2 ack 40 ------- 2 5.0 0.0 11 26
+ 1.572976 2 0 ack 40 ------- 2 5.0 0.0 11 26
- 1.572976 2 0 ack 40 ------- 2 5.0 0.0 11 26
r 1.574176 2 0 ack 40 ------- 2 5.0 0.0 9 24
+ 1.574176 0 2 tcp 1040 ------- 2 0.0 5.0 19 34
- 1.574176 0 2 tcp 1040 ------- 2 0.0 5.0 19 34
+ 1.574176 0 2 tcp 1040 ------- 2 0.0 5.0 20 35
- 1.575008 0 2 tcp 1040 ------- 2 0.0 5.0 20 35
r 1.576176 0 2 tcp 1040 ------- 2 0.0 5.0 15 30
+ 1.576176 2 3 tcp 1040 ------- 2 0.0 5.0 15 30
- 1.576176 2 3 tcp 1040 ------- 2 0.0 5.0 15 30
r 1.577008 0 2 tcp 1040 ------- 2 0.0 5.0 16 31
+ 1.577008 2 3 tcp 1040 ------- 2 0.0 5.0 16 31
- 1.577008 2 3 tcp 1040 ------- 2 0.0 5.0 16 31
r 1.577392 3 2 ack 40 ------- 2 5.0 0.0 12 27
+ 1.577392 2 0 ack 40 ------- 2 5.0 0.0 12 27
- 1.577392 2 0 ack 40 ------- 2 5.0 0.0 12 27
r 1.578592 2 0 ack 40 ------- 2 5.0 0.0 10 25
+ 1.578592 0 2 tcp 1040 ------- 2 0.0 5.0 21 36
- 1.578592 0 2 tcp 1040 ------- 2 0.0 5.0 21 36
+ 1.578592 0 2 tcp 1040 ------- 2 0.0 5.0 22 37
- 1.579424 0 2 tcp 1040 ------- 2 0.0 5.0 22 37
r 1.580592 0 2 tcp 1040 ------- 2 0.0 5.0 17 32
+ 1.580592 2 3 tcp 1040 ------- 2 0.0 5.0 17 32
- 1.580592 2 3 tcp 1040 ------- 2 0.0 5.0 17 32
r 1.581424 0 2 tcp 1040 ------- 2 0.0 5.0 18 33
+ 1.581424 2 3 tcp 1040 ------- 2 0.0 5.0 18 33
- 1.581424 2 3 tcp 1040 ------- 2 0.0 5.0 18 33
r 1.581808 3 2 ack 40 ------- 2 5.0 0.0 13 28
+ 1.581808 2 0 ack 40 ------- 2 5.0 0.0 13 28
- 1.581808 2 0 ack 40 ------- 2 5.0 0.0 13 28
r 1.583008 2 0 ack 40 ------- 2 5.0 0.0 11 26
+ 1.583008 0 2 tcp 1040 ------- 2 0.0 5.0 23 38
- 1.583008 0 2 tcp 1040 ------- 2 0.0 5.0 23 38
+ 1.583008 0 2 tcp 1040 ------- 2 0.0 5.0 24 39
- 1.58384 0 2 tcp 1040 ------- 2 0.0 5.0 24 39
r 1.585008 0 2 tcp 1040 ------- 2 0.0 5.0 19 34
+ 1.585008 2 3 tcp 1040 ------- 2 0.0 5.0 19 34
- 1.585008 2 3 tcp 1040 ------- 2 0.0 5.0 19 34
r 1.58584 0 2 tcp 1040 ------- 2 0.0 5.0 20 35
+ 1.58584 2 3 tcp 1040 ------- 2 0.0 5.0 20 35
- 1.58584 2 3 tcp 1040 ------- 2 0.0 5.0 20 35
r 1.586224 3 2 ack 40 ------- 2 5.0 0.0 14 29
+ 1.586224 2 0 ack 40 ------- 2 5.0 0.0 14 29
- 1.586224 2 0 ack 40 ------- 2 5.0 0.0 14 29
r 1.587424 2 0 ack 40 ------- 2 5.0 0.0 12 27
+ 1.587424 0 2 tcp 1040 ------- 2 0.0 5.0 25 40
- 1.587424 0 2 tcp 1040 ------- 2 0.0 5.0 25 40
+ 1.587424 0 2 tcp 1040 ------- 2 0.0 5.0 26 41
- 1.588256 0 2 tcp 1040 ------- 2 0.0 5.0 26 41
r 1.589424 0 2 tcp 1040 ------- 2 0.0 5.0 21 36
+ 1.589424 2 3 tcp 1040 ------- 2 0.0 5.0 21 36
- 1.589424 2 3 tcp 1040 ------- 2 0.0 5.0 21 36
r 1.590256 0 2 tcp 1040 ------- 2 0.0 5.0 22 37
+ 1.590256 2 3 tcp 1040 ------- 2 0.0 5.0 22 37
- 1.590256 2 3 tcp 1040 ------- 2 0.0 5.0 22 37
r 1.59184 2 0 ack 40 ------- 2 5.0 0.0 13 28
+ 1.59184 0 2 tcp 1040 ------- 2 0.0 5.0 27 42
- 1.59184 0 2 tcp 1040 ------- 2 0.0 5.0 27 42
+ 1.59184 0 2 tcp 1040 ------- 2 0.0 5.0 28 43
- 1.592672 0 2 tcp 1040 ------- 2 0.0 5.0 28 43
r 1.59384 0 2 tcp 1040 ------- 2 0.0 5.0 23 38
+ 1.59384 2 3 tcp 1040 ------- 2 0.0 5.0 23 38
- 1.59384 2 3 tcp 1040 ------- 2 0.0 5.0 23 38
r 1.594672 0 2 tcp 1040 ------- 2 0.0 5.0 24 39
+ 1.594672 2 3 tcp 1040 ------- 2 0.0 5.0 24 39
- 1.594672 2 3 tcp 1040 ------- 2 0.0 5.0 24 39
r 1.596256 2 0 ack 40 ------- 2 5.0 0.0 14 29
+ 1.596256 0 2 tcp 1040 ------- 2 0.0 5.0 29 44
- 1.596256 0 2 tcp 1040 ------- 2 0.0 5.0 29 44
+ 1.596256 0 2 tcp 1040 ------- 2 0.0 5.0 30 45
r 1.597008 2 3 tcp 1040 ------- 2 0.0 5.0 15 30
h 1.597008 3 7 tcp 1040 ------- 2 0.0 5.0 15 30
- 1.597088 0 2 tcp 1040 ------- 2 0.0 5.0 30 45
r 1.59784 2 3 tcp 1040 ------- 2 0.0 5.0 16 31
h 1.59784 3 7 tcp 1040 ------- 2 0.0 5.0 16 31
r 1.598256 0 2 tcp 1040 ------- 2 0.0 5.0 25 40
+ 1.598256 2 3 tcp 1040 ------- 2 0.0 5.0 25 40
- 1.598256 2 3 tcp 1040 ------- 2 0.0 5.0 25 40
r 1.599088 0 2 tcp 1040 ------- 2 0.0 5.0 26 41
+ 1.599088 2 3 tcp 1040 ------- 2 0.0 5.0 26 41
- 1.599088 2 3 tcp 1040 ------- 2 0.0 5.0 26 41
r 1.601424 2 3 tcp 1040 ------- 2 0.0 5.0 17 32
h 1.601424 3 7 tcp 1040 ------- 2 0.0 5.0 17 32
r 1.602256 2 3 tcp 1040 ------- 2 0.0 5.0 18 33
h 1.602256 3 7 tcp 1040 ------- 2 0.0 5.0 18 33
r 1.602672 0 2 tcp 1040 ------- 2 0.0 5.0 27 42
+ 1.602672 2 3 tcp 1040 ------- 2 0.0 5.0 27 42
- 1.602672 2 3 tcp 1040 ------- 2 0.0 5.0 27 42
r 1.603504 0 2 tcp 1040 ------- 2 0.0 5.0 28 43
+ 1.603504 2 3 tcp 1040 ------- 2 0.0 5.0 28 43
- 1.603504 2 3 tcp 1040 ------- 2 0.0 5.0 28 43
r 1.60584 2 3 tcp 1040 ------- 2 0.0 5.0 19 34
h 1.60584 3 7 tcp 1040 ------- 2 0.0 5.0 19 34
r 1.606672 2 3 tcp 1040 ------- 2 0.0 5.0 20 35
h 1.606672 3 7 tcp 1040 ------- 2 0.0 5.0 20 35
r 1.607088 0 2 tcp 1040 ------- 2 0.0 5.0 29 44
+ 1.607088 2 3 tcp 1040 ------- 2 0.0 5.0 29 44
- 1.607088 2 3 tcp 1040 ------- 2 0.0 5.0 29 44
r 1.60792 0 2 tcp 1040 ------- 2 0.0 5.0 30 45
+ 1.60792 2 3 tcp 1040 ------- 2 0.0 5.0 30 45
- 1.60792 2 3 tcp 1040 ------- 2 0.0 5.0 30 45
r 1.610256 2 3 tcp 1040 ------- 2 0.0 5.0 21 36
h 1.610256 3 7 tcp 1040 ------- 2 0.0 5.0 21 36
r 1.611088 2 3 tcp 1040 ------- 2 0.0 5.0 22 37
h 1.611088 3 7 tcp 1040 ------- 2 0.0 5.0 22 37
r 1.614672 2 3 tcp 1040 ------- 2 0.0 5.0 23 38
h 1.614672 3 7 tcp 1040 ------- 2 0.0 5.0 23 38
r 1.615504 2 3 tcp 1040 ------- 2 0.0 5.0 24 39
h 1.615504 3 7 tcp 1040 ------- 2 0.0 5.0 24 39
+ 1.617008 3 7 tcp 1040 ------- 2 0.0 5.0 15 30
- 1.617008 3 7 tcp 1040 ------- 2 0.0 5.0 15 30
d 1.617012 6 7 tcp 1040 ------- 2 0.0 5.0 15 30
d 1.617012 4 7 tcp 1040 ------- 2 0.0 5.0 15 30
+ 1.61784 3 7 tcp 1040 ------- 2 0.0 5.0 16 31
r 1.619088 2 3 tcp 1040 ------- 2 0.0 5.0 25 40
h 1.619088 3 7 tcp 1040 ------- 2 0.0 5.0 25 40
r 1.61992 2 3 tcp 1040 ------- 2 0.0 5.0 26 41
h 1.61992 3 7 tcp 1040 ------- 2 0.0 5.0 26 41
+ 1.621424 3 7 tcp 1040 ------- 2 0.0 5.0 17 32
- 1.621424 3 7 tcp 1040 ------- 2 0.0 5.0 16 31
d 1.621428 6 7 tcp 1040 ------- 2 0.0 5.0 16 31
d 1.621428 4 7 tcp 1040 ------- 2 0.0 5.0 16 31
+ 1.622256 3 7 tcp 1040 ------- 2 0.0 5.0 18 33
r 1.623504 2 3 tcp 1040 ------- 2 0.0 5.0 27 42
h 1.623504 3 7 tcp 1040 ------- 2 0.0 5.0 27 42
r 1.624336 2 3 tcp 1040 ------- 2 0.0 5.0 28 43
h 1.624336 3 7 tcp 1040 ------- 2 0.0 5.0 28 43
+ 1.62584 3 7 tcp 1040 ------- 2 0.0 5.0 19 34
- 1.62584 3 7 tcp 1040 ------- 2 0.0 5.0 17 32
d 1.625844 6 7 tcp 1040 ------- 2 0.0 5.0 17 32
d 1.625844 4 7 tcp 1040 ------- 2 0.0 5.0 17 32
+ 1.626672 3 7 tcp 1040 ------- 2 0.0 5.0 20 35
r 1.62792 2 3 tcp 1040 ------- 2 0.0 5.0 29 44
h 1.62792 3 7 tcp 1040 ------- 2 0.0 5.0 29 44
r 1.628752 2 3 tcp 1040 ------- 2 0.0 5.0 30 45
h 1.628752 3 7 tcp 1040 ------- 2 0.0 5.0 30 45
+ 1.630256 3 7 tcp 1040 ------- 2 0.0 5.0 21 36
- 1.630256 3 7 tcp 1040 ------- 2 0.0 5.0 18 33
d 1.63026 6 7 tcp 1040 ------- 2 0.0 5.0 18 33
d 1.63026 4 7 tcp 1040 ------- 2 0.0 5.0 18 33
+ 1.631088 3 7 tcp 1040 ------- 2 0.0 5.0 22 37
+ 1.634672 3 7 tcp 1040 ------- 2 0.0 5.0 23 38
- 1.634672 3 7 tcp 1040 ------- 2 0.0 5.0 19 34
d 1.634676 6 7 tcp 1040 ------- 2 0.0 5.0 19 34
d 1.634676 4 7 tcp 1040 ------- 2 0.0 5.0 19 34
+ 1.635504 3 7 tcp 1040 ------- 2 0.0 5.0 24 39
r 1.637012 7 5 tcp 1040 ------- 2 0.0 5.0 15 30
h 1.637012 5 7 ack 40 ------- 2 5.0 0.0 15 46
+ 1.639088 3 7 tcp 1040 ------- 2 0.0 5.0 25 40
- 1.639088 3 7 tcp 1040 ------- 2 0.0 5.0 20 35
d 1.639092 6 7 tcp 1040 ------- 2 0.0 5.0 20 35
d 1.639092 4 7 tcp 1040 ------- 2 0.0 5.0 20 35
+ 1.63992 3 7 tcp 1040 ------- 2 0.0 5.0 26 41
r 1.641428 7 5 tcp 1040 ------- 2 0.0 5.0 16 31
h 1.641428 5 7 ack 40 ------- 2 5.0 0.0 16 47
+ 1.643504 3 7 tcp 1040 ------- 2 0.0 5.0 27 42
- 1.643504 3 7 tcp 1040 ------- 2 0.0 5.0 21 36
d 1.643508 6 7 tcp 1040 ------- 2 0.0 5.0 21 36
d 1.643508 4 7 tcp 1040 ------- 2 0.0 5.0 21 36
+ 1.644336 3 7 tcp 1040 ------- 2 0.0 5.0 28 43
r 1.645844 7 5 tcp 1040 ------- 2 0.0 5.0 17 32
h 1.645844 5 7 ack 40 ------- 2 5.0 0.0 17 48
+ 1.64792 3 7 tcp 1040 ------- 2 0.0 5.0 29 44
- 1.64792 3 7 tcp 1040 ------- 2 0.0 5.0 22 37
d 1.647924 6 7 tcp 1040 ------- 2 0.0 5.0 22 37
d 1.647924 4 7 tcp 1040 ------- 2 0.0 5.0 22 37
+ 1.648752 3 7 tcp 1040 ------- 2 0.0 5.0 30 45
r 1.65026 7 5 tcp 1040 ------- 2 0.0 5.0 18 33
h 1.65026 5 7 ack 40 ------- 2 5.0 0.0 18 49
- 1.652336 3 7 tcp 1040 ------- 2 0.0 5.0 23 38
d 1.65234 6 7 tcp 1040 ------- 2 0.0 5.0 23 38
d 1.65234 4 7 tcp 1040 ------- 2 0.0 5.0 23 38
r 1.654676 7 5 tcp 1040 ------- 2 0.0 5.0 19 34
h 1.654676 5 7 ack 40 ------- 2 5.0 0.0 19 50
- 1.656752 3 7 tcp 1040 ------- 2 0.0 5.0 24 39
d 1.656756 6 7 tcp 1040 ------- 2 0.0 5.0 24 39
d 1.656756 4 7 tcp 1040 ------- 2 0.0 5.0 24 39
+ 1.657012 5 7 ack 40 ------- 2 5.0 0.0 15 46
- 1.657012 5 7 ack 40 ------- 2 5.0 0.0 15 46
d 1.657016 6 7 ack 40 ------- 2 5.0 0.0 15 46
d 1.657016 4 7 ack 40 ------- 2 5.0 0.0 15 46
r 1.659092 7 5 tcp 1040 ------- 2 0.0 5.0 20 35
h 1.659092 5 7 ack 40 ------- 2 5.0 0.0 20 51
- 1.661168 3 7 tcp 1040 ------- 2 0.0 5.0 25 40
d 1.661172 6 7 tcp 1040 ------- 2 0.0 5.0 25 40
d 1.661172 4 7 tcp 1040 ------- 2 0.0 5.0 25 40
+ 1.661428 5 7 ack 40 ------- 2 5.0 0.0 16 47
- 1.661428 5 7 ack 40 ------- 2 5.0 0.0 16 47
d 1.661432 6 7 ack 40 ------- 2 5.0 0.0 16 47
d 1.661432 4 7 ack 40 ------- 2 5.0 0.0 16 47
r 1.663508 7 5 tcp 1040 ------- 2 0.0 5.0 21 36
h 1.663508 5 7 ack 40 ------- 2 5.0 0.0 21 52
- 1.665584 3 7 tcp 1040 ------- 2 0.0 5.0 26 41
d 1.665588 6 7 tcp 1040 ------- 2 0.0 5.0 26 41
d 1.665588 4 7 tcp 1040 ------- 2 0.0 5.0 26 41
+ 1.665844 5 7 ack 40 ------- 2 5.0 0.0 17 48
- 1.665844 5 7 ack 40 ------- 2 5.0 0.0 17 48
d 1.665848 6 7 ack 40 ------- 2 5.0 0.0 17 48
d 1.665848 4 7 ack 40 ------- 2 5.0 0.0 17 48
r 1.667924 7 5 tcp 1040 ------- 2 0.0 5.0 22 37
h 1.667924 5 7 ack 40 ------- 2 5.0 0.0 22 53
- 1.67 3 7 tcp 1040 ------- 2 0.0 5.0 27 42
d 1.670004 6 7 tcp 1040 ------- 2 0.0 5.0 27 42
d 1.670004 4 7 tcp 1040 ------- 2 0.0 5.0 27 42
+ 1.67026 5 7 ack 40 ------- 2 5.0 0.0 18 49
- 1.67026 5 7 ack 40 ------- 2 5.0 0.0 18 49
d 1.670264 6 7 ack 40 ------- 2 5.0 0.0 18 49
d 1.670264 4 7 ack 40 ------- 2 5.0 0.0 18 49
r 1.67234 7 5 tcp 1040 ------- 2 0.0 5.0 23 38
h 1.67234 5 7 ack 40 ------- 2 5.0 0.0 23 54
- 1.674416 3 7 tcp 1040 ------- 2 0.0 5.0 28 43
d 1.67442 6 7 tcp 1040 ------- 2 0.0 5.0 28 43
d 1.67442 4 7 tcp 1040 ------- 2 0.0 5.0 28 43
+ 1.674676 5 7 ack 40 ------- 2 5.0 0.0 19 50
- 1.674676 5 7 ack 40 ------- 2 5.0 0.0 19 50
d 1.67468 6 7 ack 40 ------- 2 5.0 0.0 19 50
d 1.67468 4 7 ack 40 ------- 2 5.0 0.0 19 50
r 1.676756 7 5 tcp 1040 ------- 2 0.0 5.0 24 39
h 1.676756 5 7 ack 40 ------- 2 5.0 0.0 24 55
r 1.677016 7 3 ack 40 ------- 2 5.0 0.0 15 46
+ 1.677016 3 2 ack 40 ------- 2 5.0 0.0 15 46
- 1.677016 3 2 ack 40 ------- 2 5.0 0.0 15 46
- 1.678832 3 7 tcp 1040 ------- 2 0.0 5.0 29 44
d 1.678836 6 7 tcp 1040 ------- 2 0.0 5.0 29 44
d 1.678836 4 7 tcp 1040 ------- 2 0.0 5.0 29 44
+ 1.679092 5 7 ack 40 ------- 2 5.0 0.0 20 51
- 1.679092 5 7 ack 40 ------- 2 5.0 0.0 20 51
d 1.679096 6 7 ack 40 ------- 2 5.0 0.0 20 51
d 1.679096 4 7 ack 40 ------- 2 5.0 0.0 20 51
r 1.681172 7 5 tcp 1040 ------- 2 0.0 5.0 25 40
h 1.681172 5 7 ack 40 ------- 2 5.0 0.0 25 56
r 1.681432 7 3 ack 40 ------- 2 5.0 0.0 16 47
+ 1.681432 3 2 ack 40 ------- 2 5.0 0.0 16 47
- 1.681432 3 2 ack 40 ------- 2 5.0 0.0 16 47
- 1.683248 3 7 tcp 1040 ------- 2 0.0 5.0 30 45
d 1.683252 6 7 tcp 1040 ------- 2 0.0 5.0 30 45
d 1.683252 4 7 tcp 1040 ------- 2 0.0 5.0 30 45
+ 1.683508 5 7 ack 40 ------- 2 5.0 0.0 21 52
- 1.683508 5 7 ack 40 ------- 2 5.0 0.0 21 52
d 1.683512 6 7 ack 40 ------- 2 5.0 0.0 21 52
d 1.683512 4 7 ack 40 ------- 2 5.0 0.0 21 52
r 1.685588 7 5 tcp 1040 ------- 2 0.0 5.0 26 41
h 1.685588 5 7 ack 40 ------- 2 5.0 0.0 26 57
r 1.685848 7 3 ack 40 ------- 2 5.0 0.0 17 48
+ 1.685848 3 2 ack 40 ------- 2 5.0 0.0 17 48
- 1.685848 3 2 ack 40 ------- 2 5.0 0.0 17 48
+ 1.687924 5 7 ack 40 ------- 2 5.0 0.0 22 53
- 1.687924 5 7 ack 40 ------- 2 5.0 0.0 22 53
d 1.687928 6 7 ack 40 ------- 2 5.0 0.0 22 53
d 1.687928 4 7 ack 40 ------- 2 5.0 0.0 22 53
r 1.690004 7 5 tcp 1040 ------- 2 0.0 5.0 27 42
h 1.690004 5 7 ack 40 ------- 2 5.0 0.0 27 58
r 1.690264 7 3 ack 40 ------- 2 5.0 0.0 18 49
+ 1.690264 3 2 ack 40 ------- 2 5.0 0.0 18 49
- 1.690264 3 2 ack 40 ------- 2 5.0 0.0 18 49
+ 1.69234 5 7 ack 40 ------- 2 5.0 0.0 23 54
- 1.69234 5 7 ack 40 ------- 2 5.0 0.0 23 54
d 1.692344 6 7 ack 40 ------- 2 5.0 0.0 23 54
d 1.692344 4 7 ack 40 ------- 2 5.0 0.0 23 54
r 1.69442 7 5 tcp 1040 ------- 2 0.0 5.0 28 43
h 1.69442 5 7 ack 40 ------- 2 5.0 0.0 28 59
r 1.69468 7 3 ack 40 ------- 2 5.0 0.0 19 50
+ 1.69468 3 2 ack 40 ------- 2 5.0 0.0 19 50
- 1.69468 3 2 ack 40 ------- 2 5.0 0.0 19 50
+ 1.696756 5 7 ack 40 ------- 2 5.0 0.0 24 55
- 1.696756 5 7 ack 40 ------- 2 5.0 0.0 24 55
d 1.69676 6 7 ack 40 ------- 2 5.0 0.0 24 55
d 1.69676 4 7 ack 40 ------- 2 5.0 0.0 24 55
r 1.697048 3 2 ack 40 ------- 2 5.0 0.0 15 46
+ 1.697048 2 0 ack 40 ------- 2 5.0 0.0 15 46
- 1.697048 2 0 ack 40 ------- 2 5.0 0.0 15 46
r 1.698836 7 5 tcp 1040 ------- 2 0.0 5.0 29 44
h 1.698836 5 7 ack 40 ------- 2 5.0 0.0 29 60
r 1.699096 7 3 ack 40 ------- 2 5.0 0.0 20 51
+ 1.699096 3 2 ack 40 ------- 2 5.0 0.0 20 51
- 1.699096 3 2 ack 40 ------- 2 5.0 0.0 20 51
+ 1.701172 5 7 ack 40 ------- 2 5.0 0.0 25 56
- 1.701172 5 7 ack 40 ------- 2 5.0 0.0 25 56
d 1.701176 6 7 ack 40 ------- 2 5.0 0.0 25 56
d 1.701176 4 7 ack 40 ------- 2 5.0 0.0 25 56
r 1.701464 3 2 ack 40 ------- 2 5.0 0.0 16 47
+ 1.701464 2 0 ack 40 ------- 2 5.0 0.0 16 47
- 1.701464 2 0 ack 40 ------- 2 5.0 0.0 16 47
r 1.703252 7 5 tcp 1040 ------- 2 0.0 5.0 30 45
h 1.703252 5 7 ack 40 ------- 2 5.0 0.0 30 61
r 1.703512 7 3 ack 40 ------- 2 5.0 0.0 21 52
+ 1.703512 3 2 ack 40 ------- 2 5.0 0.0 21 52
- 1.703512 3 2 ack 40 ------- 2 5.0 0.0 21 52
+ 1.705588 5 7 ack 40 ------- 2 5.0 0.0 26 57
- 1.705588 5 7 ack 40 ------- 2 5.0 0.0 26 57
d 1.705592 6 7 ack 40 ------- 2 5.0 0.0 26 57
d 1.705592 4 7 ack 40 ------- 2 5.0 0.0 26 57
r 1.70588 3 2 ack 40 ------- 2 5.0 0.0 17 48
+ 1.70588 2 0 ack 40 ------- 2 5.0 0.0 17 48
- 1.70588 2 0 ack 40 ------- 2 5.0 0.0 17 48
r 1.70708 2 0 ack 40 ------- 2 5.0 0.0 15 46