V -t * -v 1.0a5 -a 0
A -t * -n 1 -p 0 -o 0x7fffffff -c 30 -a 1
A -t * -h 1 -m 1073741823 -s 0
c -t * -i 1 -n Blue
c -t * -i 2 -n Red
n -t * -a 4 -s 4 -S UP -v circle -c black -i black
n -t * -a 0 -s 0 -S UP -v circle -c black -i black
n -t * -a 5 -s 5 -S UP -v circle -c black -i black
n -t * -a 1 -s 1 -S UP -v circle -c black -i black
n -t * -a 6 -s 6 -S UP -v circle -c black -i black
n -t * -a 2 -s 2 -S UP -v circle -c black -i black
n -t * -a 3 -s 3 -S UP -v circle -c black -i black
l -t * -s 0 -d 2 -S UP -r 10000000 -D 0.01 -c black -o right-down
l -t * -s 1 -d 2 -S UP -r 10000000 -D 0.02 -c black -o right-up
l -t * -s 2 -d 3 -S UP -r 10000000 -D 0.02 -c black -o right
X -t * -n 7 -r 4Mb -D 20ms -o left
L -t * -s 7 -d 3 -o up
L -t * -s 7 -d 4 -o down
L -t * -s 7 -d 5 -o up
L -t * -s 7 -d 6 -o down
+ -t 1 -s 0 -d 2 -p tcp -e 40 -c 2 -i 0 -a 2 -x {0.0 5.0 0 ------- null}
- -t 1 -s 0 -d 2 -p tcp -e 40 -c 2 -i 0 -a 2 -x {0.0 5.0 0 ------- null}
h -t 1 -s 0 -d 2 -p tcp -e 40 -c 2 -i 0 -a 2 -x {0.0 5.0 -1 ------- null}
r -t 1.010032 -s 0 -d 2 -p tcp -e 40 -c 2 -i 0 -a 2 -x {0.0 5.0 0 ------- null}
+ -t 1.010032 -s 2 -d 3 -p tcp -e 40 -c 2 -i 0 -a 2 -x {0.0 5.0 0 ------- null}
- -t 1.010032 -s 2 -d 3 -p tcp -e 40 -c 2 -i 0 -a 2 -x {0.0 5.0 0 ------- null}
h -t 1.010032 -s 2 -d 3 -p tcp -e 40 -c 2 -i 0 -a 2 -x {0.0 5.0 -1 ------- null}
r -t 1.030064 -s 2 -d 3 -p tcp -e 40 -c 2 -i 0 -a 2 -x {0.0 5.0 0 ------- null}
h -t 1.030064 -s 3 -d 7 -p tcp -e 40 -c 2 -i 0 -a 2 -x {0.0 5.0 0 ------- null}
+ -t 1.050064 -s 3 -d 7 -p tcp -e 40 -c 2 -i 0 -a 2 -x {0.0 5.0 0 ------- null}
- -t 1.050064 -s 3 -d 7 -p tcp -e 40 -c 2 -i 0 -a 2 -x {0.0 5.0 0 ------- null}
h -t 1.050064 -s 3 -d 7 -p tcp -e 40 -c 2 -i 0 -a 2 -x {0.0 5.0 -1 ------- null}
d -t 1.050068 -s 6 -d 7 -p tcp -e 40 -c 2 -i 0 -a 2 -x {0.0 5.0 0 ------- null}
d -t 1.050068 -s 4 -d 7 -p tcp -e 40 -c 2 -i 0 -a 2 -x {0.0 5.0 0 ------- null}
r -t 1.070068 -s 7 -d 5 -p tcp -e 40 -c 2 -i 0 -a 2 -x {0.0 5.0 0 ------- null}
h -t 1.070068 -s 5 -d 7 -p ack -e 40 -c 2 -i 1 -a 2 -x {5.0 0.0 0 ------- null}
+ -t 1.090068 -s 5 -d 7 -p ack -e 40 -c 2 -i 1 -a 2 -x {5.0 0.0 0 ------- null}
- -t 1.090068 -s 5 -d 7 -p ack -e 40 -c 2 -i 1 -a 2 -x {5.0 0.0 0 ------- null}
h -t 1.090068 -s 5 -d 7 -p ack -e 40 -c 2 -i 1 -a 2 -x {5.0 0.0 -1 ------- null}
d -t 1.090072 -s 6 -d 7 -p ack -e 40 -c 2 -i 1 -a 2 -x {5.0 0.0 0 ------- null}
d -t 1.090072 -s 4 -d 7 -p ack -e 40 -c 2 -i 1 -a 2 -x {5.0 0.0 0 ------- null}
r -t 1.110072 -s 7 -d 3 -p ack -e 40 -c 2 -i 1 -a 2 -x {5.0 0.0 0 ------- null}
+ -t 1.110072 -s 3 -d 2 -p ack -e 40 -c 2 -i 1 -a 2 -x {5.0 0.0 0 ------- null}
- -t 1.110072 -s 3 -d 2 -p ack -e 40 -c 2 -i 1 -a 2 -x {5.0 0.0 0 ------- null}
h -t 1.110072 -s 3 -d 2 -p ack -e 40 -c 2 -i 1 -a 2 -x {5.0 0.0 -1 ------- null}
r -t 1.130104 -s 3 -d 2 -p ack -e 40 -c 2 -i 1 -a 2 -x {5.0 0.0 0 ------- null}
+ -t 1.130104 -s 2 -d 0 -p ack -e 40 -c 2 -i 1 -a 2 -x {5.0 0.0 0 ------- null}
- -t 1.130104 -s 2 -d 0 -p ack -e 40 -c 2 -i 1 -a 2 -x {5.0 0.0 0 ------- null}
h -t 1.130104 -s 2 -d 0 -p ack -e 40 -c 2 -i 1 -a 2 -x {5.0 0.0 -1 ------- null}
r -t 1.140136 -s 2 -d 0 -p ack -e 40 -c 2 -i 1 -a 2 -x {5.0 0.0 0 ------- null}
+ -t 1.140136 -s 0 -d 2 -p tcp -e 1040 -c 2 -i 2 -a 2 -x {0.0 5.0 1 ------- null}
- -t 1.140136 -s 0 -d 2 -p tcp -e 1040 -c 2 -i 2 -a 2 -x {0.0 5.0 1 ------- null}
h -t 1.140136 -s 0 -d 2 -p tcp -e 1040 -c 2 -i 2 -a 2 -x {0.0 5.0 -1 ------- null}
+ -t 1.140136 -s 0 -d 2 -p tcp -e 1040 -c 2 -i 3 -a 2 -x {0.0 5.0 2 ------- null}
- -t 1.140968 -s 0 -d 2 -p tcp -e 1040 -c 2 -i 3 -a 2 -x {0.0 5.0 2 ------- null}
h -t 1.140968 -s 0 -d 2 -p tcp -e 1040 -c 2 -i 3 -a 2 -x {0.0 5.0 -1 ------- null}
r -t 1.150968 -s 0 -d 2 -p tcp -e 1040 -c 2 -i 2 -a 2 -x {0.0 5.0 1 ------- null}
+ -t 1.150968 -s 2 -d 3 -p tcp -e 1040 -c 2 -i 2 -a 2 -x {0.0 5.0 1 ------- null}
- -t 1.150968 -s 2 -d 3 -p tcp -e 1040 -c 2 -i 2 -a 2 -x {0.0 5.0 1 ------- null}
h -t 1.150968 -s 2 -d 3 -p tcp -e 1040 -c 2 -i 2 -a 2 -x {0.0 5.0 -1 ------- null}
r -t 1.1518 -s 0 -d 2 -p tcp -e 1040 -c 2 -i 3 -a 2 -x {0.0 5.0 2 ------- null}
+ -t 1.1518 -s 2 -d 3 -p tcp -e 1040 -c 2 -i 3 -a 2 -x {0.0 5.0 2 ------- null}
- -t 1.1518 -s 2 -d 3 -p tcp -e 1040 -c 2 -i 3 -a 2 -x {0.0 5.0 2 ------- null}
h -t 1.1518 -s 2 -d 3 -p tcp -e 1040 -c 2 -i 3 -a 2 -x {0.0 5.0 -1 ------- null}
r -t 1.1718 -s 2 -d 3 -p tcp -e 1040 -c 2 -i 2 -a 2 -x {0.0 5.0 1 ------- null}
h -t 1.1718 -s 3 -d 7 -p tcp -e 1040 -c 2 -i 2 -a 2 -x {0.0 5.0 1 ------- null}
r -t 1.172632 -s 2 -d 3 -p tcp -e 1040 -c 2 -i 3 -a 2 -x {0.0 5.0 2 ------- null}
h -t 1.172632 -s 3 -d 7 -p tcp -e 1040 -c 2 -i 3 -a 2 -x {0.0 5.0 2 ------- null}
+ -t 1.1918 -s 3 -d 7 -p tcp -e 1040 -c 2 -i 2 -a 2 -x {0.0 5.0 1 ------- null}
- -t 1.1918 -s 3 -d 7 -p tcp -e 1040 -c 2 -i 2 -a 2 -x {0.0 5.0 1 ------- null}
h -t 1.1918 -s 3 -d 7 -p tcp -e 1040 -c 2 -i 2 -a 2 -x {0.0 5.0 -1 ------- null}
d -t 1.191804 -s 6 -d 7 -p tcp -e 1040 -c 2 -i 2 -a 2 -x {0.0 5.0 1 ------- null}
d -t 1.191804 -s 4 -d 7 -p tcp -e 1040 -c 2 -i 2 -a 2 -x {0.0 5.0 1 ------- null}
+ -t 1.192632 -s 3 -d 7 -p tcp -e 1040 -c 2 -i 3 -a 2 -x {0.0 5.0 2 ------- null}
- -t 1.196216 -s 3 -d 7 -p tcp -e 1040 -c 2 -i 3 -a 2 -x {0.0 5.0 2 ------- null}
h -t 1.196216 -s 3 -d 7 -p tcp -e 1040 -c 2 -i 3 -a 2 -x {0.0 5.0 -1 ------- null}
d -t 1.19622 -s 6 -d 7 -p tcp -e 1040 -c 2 -i 3 -a 2 -x {0.0 5.0 2 ------- null}
d -t 1.19622 -s 4 -d 7 -p tcp -e 1040 -c 2 -i 3 -a 2 -x {0.0 5.0 2 ------- null}
r -t 1.211804 -s 7 -d 5 -p tcp -e 1040 -c 2 -i 2 -a 2 -x {0.0 5.0 1 ------- null}
h -t 1.211804 -s 5 -d 7 -p ack -e 40 -c 2 -i 4 -a 2 -x {5.0 0.0 1 ------- null}
r -t 1.21622 -s 7 -d 5 -p tcp -e 1040 -c 2 -i 3 -a 2 -x {0.0 5.0 2 ------- null}
h -t 1.21622 -s 5 -d 7 -p ack -e 40 -c 2 -i 5 -a 2 -x {5.0 0.0 2 ------- null}
+ -t 1.231804 -s 5 -d 7 -p ack -e 40 -c 2 -i 4 -a 2 -x {5.0 0.0 1 ------- null}
- -t 1.231804 -s 5 -d 7 -p ack -e 40 -c 2 -i 4 -a 2 -x {5.0 0.0 1 ------- null}
h -t 1.231804 -s 5 -d 7 -p ack -e 40 -c 2 -i 4 -a 2 -x {5.0 0.0 -1 ------- null}
d -t 1.231808 -s 6 -d 7 -p ack -e 40 -c 2 -i 4 -a 2 -x {5.0 0.0 1 ------- null}
d -t 1.231808 -s 4 -d 7 -p ack -e 40 -c 2 -i 4 -a 2 -x {5.0 0.0 1 ------- null}
+ -t 1.23622 -s 5 -d 7 -p ack -e 40 -c 2 -i 5 -a 2 -x {5.0 0.0 2 ------- null}
- -t 1.23622 -s 5 -d 7 -p ack -e 40 -c 2 -i 5 -a 2 -x {5.0 0.0 2 ------- null}
h -t 1.23622 -s 5 -d 7 -p ack -e 40 -c 2 -i 5 -a 2 -x {5.0 0.0 -1 ------- null}
d -t 1.236224 -s 6 -d 7 -p ack -e 40 -c 2 -i 5 -a 2 -x {5.0 0.0 2 ------- null}
d -t 1.236224 -s 4 -d 7 -p ack -e 40 -c 2 -i 5 -a 2 -x {5.0 0.0 2 ------- null}
r -t 1.251808 -s 7 -d 3 -p ack -e 40 -c 2 -i 4 -a 2 -x {5.0 0.0 1 ------- null}
+ -t 1.251808 -s 3 -d 2 -p ack -e 40 -c 2 -i 4 -a 2 -x {5.0 0.0 1 ------- null}
- -t 1.251808 -s 3 -d 2 -p ack -e 40 -c 2 -i 4 -a 2 -x {5.0 0.0 1 ------- null}
h -t 1.251808 -s 3 -d 2 -p ack -e 40 -c 2 -i 4 -a 2 -x {5.0 0.0 -1 ------- null}
r -t 1.256224 -s 7 -d 3 -p ack -e 40 -c 2 -i 5 -a 2 -x {5.0 0.0 2 ------- null}
+ -t 1.256224 -s 3 -d 2 -p ack -e 40 -c 2 -i 5 -a 2 -x {5.0 0.0 2 ------- null}
- -t 1.256224 -s 3 -d 2 -p ack -e 40 -c 2 -i 5 -a 2 -x {5.0 0.0 2 ------- null}
h -t 1.256224 -s 3 -d 2 -p ack -e 40 -c 2 -i 5 -a 2 -x {5.0 0.0 -1 ------- null}
r -t 1.27184 -s 3 -d 2 -p ack -e 40 -c 2 -i 4 -a 2 -x {5.0 0.0 1 ------- null}
+ -t 1.27184 -s 2 -d 0 -p ack -e 40 -c 2 -i 4 -a 2 -x {5.0 0.0 1 ------- null}
- -t 1.27184 -s 2 -d 0 -p ack -e 40 -c 2 -i 4 -a 2 -x {5.0 0.0 1 ------- null}
h -t 1.27184 -s 2 -d 0 -p ack -e 40 -c 2 -i 4 -a 2 -x {5.0 0.0 -1 ------- null}
r -t 1.276256 -s 3 -d 2 -p ack -e 40 -c 2 -i 5 -a 2 -x {5.0 0.0 2 ------- null}
+ -t 1.276256 -s 2 -d 0 -p ack -e 40 -c 2 -i 5 -a 2 -x {5.0 0.0 2 ------- null}
- -t 1.276256 -s 2 -d 0 -p ack -e 40 -c 2 -i 5 -a 2 -x {5.0 0.0 2 ------- null}
h -t 1.276256 -s 2 -d 0 -p ack -e 40 -c 2 -i 5 -a 2 -x {5.0 0.0 -1 ------- null}
r -t 1.281872 -s 2 -d 0 -p ack -e 40 -c 2 -i 4 -a 2 -x {5.0 0.0 1 ------- null}
+ -t 1.281872 -s 0 -d 2 -p tcp -e 1040 -c 2 -i 6 -a 2 -x {0.0 5.0 3 ------- null}
- -t 1.281872 -s 0 -d 2 -p tcp -e 1040 -c 2 -i 6 -a 2 -x {0.0 5.0 3 ------- null}
h -t 1.281872 -s 0 -d 2 -p tcp -e 1040 -c 2 -i 6 -a 2 -x {0.0 5.0 -1 ------- null}
+ -t 1.281872 -s 0 -d 2 -p tcp -e 1040 -c 2 -i 7 -a 2 -x {0.0 5.0 4 ------- null}
- -t 1.282704 -s 0 -d 2 -p tcp -e 1040 -c 2 -i 7 -a 2 -x {0.0 5.0 4 ------- null}
h -t 1.282704 -s 0 -d 2 -p tcp -e 1040 -c 2 -i 7 -a 2 -x {0.0 5.0 -1 ------- null}
r -t 1.286288 -s 2 -d 0 -p ack -e 40 -c 2 -i 5 -a 2 -x {5.0 0.0 2 ------- null}
+ -t 1.286288 -s 0 -d 2 -p tcp -e 1040 -c 2 -i 8 -a 2 -x {0.0 5.0 5 ------- null}
- -t 1.286288 -s 0 -d 2 -p tcp -e 1040 -c 2 -i 8 -a 2 -x {0.0 5.0 5 ------- null}
h -t 1.286288 -s 0 -d 2 -p tcp -e 1040 -c 2 -i 8 -a 2 -x {0.0 5.0 -1 ------- null}
+ -t 1.286288 -s 0 -d 2 -p tcp -e 1040 -c 2 -i 9 -a 2 -x {0.0 5.0 6 ------- null}
- -t 1.28712 -s 0 -d 2 -p tcp -e 1040 -c 2 -i 9 -a 2 -x {0.0 5.0 6 ------- null}
h -t 1.28712 -s 0 -d 2 -p tcp -e 1040 -c 2 -i 9 -a 2 -x {0.0 5.0 -1 ------- null}
r -t 1.292704 -s 0 -d 2 -p tcp -e 1040 -c 2 -i 6 -a 2 -x {0.0 5.0 3 ------- null}
+ -t 1.292704 -s 2 -d 3 -p tcp -e 1040 -c 2 -i 6 -a 2 -x {0.0 5.0 3 ------- null}
- -t 1.292704 -s 2 -d 3 -p tcp -e 1040 -c 2 -i 6 -a 2 -x {0.0 5.0 3 ------- null}
h -t 1.292704 -s 2 -d 3 -p tcp -e 1040 -c 2 -i 6 -a 2 -x {0.0 5.0 -1 ------- null}
r -t 1.293536 -s 0 -d 2 -p tcp -e 1040 -c 2 -i 7 -a 2 -x {0.0 5.0 4 ------- null}
+ -t 1.293536 -s 2 -d 3 -p tcp -e 1040 -c 2 -i 7 -a 2 -x {0.0 5.0 4 ------- null}
- -t 1.293536 -s 2 -d 3 -p tcp -e 1040 -c 2 -i 7 -a 2 -x {0.0 5.0 4 ------- null}
h -t 1.293536 -s 2 -d 3 -p tcp -e 1040 -c 2 -i 7 -a 2 -x {0.0 5.0 -1 ------- null}
r -t 1.29712 -s 0 -d 2 -p tcp -e 1040 -c 2 -i 8 -a 2 -x {0.0 5.0 5 ------- null}
+ -t 1.29712 -s 2 -d 3 -p tcp -e 1040 -c 2 -i 8 -a 2 -x {0.0 5.0 5 ------- null}
- -t 1.29712 -s 2 -d 3 -p tcp -e 1040 -c 2 -i 8 -a 2 -x {0.0 5.0 5 ------- null}
h -t 1.29712 -s 2 -d 3 -p tcp -e 1040 -c 2 -i 8 -a 2 -x {0.0 5.0 -1 ------- null}
r -t 1.297952 -s 0 -d 2 -p tcp -e 1040 -c 2 -i 9 -a 2 -x {0.0 5.0 6 ------- null}
+ -t 1.297952 -s 2 -d 3 -p tcp -e 1040 -c 2 -i 9 -a 2 -x {0.0 5.0 6 ------- null}
- -t 1.297952 -s 2 -d 3 -p tcp -e 1040 -c 2 -i 9 -a 2 -x {0.0 5.0 6 ------- null}
h -t 1.297952 -s 2 -d 3 -p tcp -e 1040 -c 2 -i 9 -a 2 -x {0.0 5.0 -1 ------- null}
r -t 1.313536 -s 2 -d 3 -p tcp -e 1040 -c 2 -i 6 -a 2 -x {0.0 5.0 3 ------- null}
h -t 1.313536 -s 3 -d 7 -p tcp -e 1040 -c 2 -i 6 -a 2 -x {0.0 5.0 3 ------- null}
r -t 1.314368 -s 2 -d 3 -p tcp -e 1040 -c 2 -i 7 -a 2 -x {0.0 5.0 4 ------- null}
h -t 1.314368 -s 3 -d 7 -p tcp -e 1040 -c 2 -i 7 -a 2 -x {0.0 5.0 4 ------- null}
r -t 1.317952 -s 2 -d 3 -p tcp -e 1040 -c 2 -i 8 -a 2 -x {0.0 5.0 5 ------- null}
h -t 1.317952 -s 3 -d 7 -p tcp -e 1040 -c 2 -i 8 -a 2 -x {0.0 5.0 5 ------- null}
r -t 1.318784 -s 2 -d 3 -p tcp -e 1040 -c 2 -i 9 -a 2 -x {0.0 5.0 6 ------- null}
h -t 1.318784 -s 3 -d 7 -p tcp -e 1040 -c 2 -i 9 -a 2 -x {0.0 5.0 6 ------- null}
+ -t 1.333536 -s 3 -d 7 -p tcp -e 1040 -c 2 -i 6 -a 2 -x {0.0 5.0 3 ------- null}
- -t 1.333536 -s 3 -d 7 -p tcp -e 1040 -c 2 -i 6 -a 2 -x {0.0 5.0 3 ------- null}
h -t 1.333536 -s 3 -d 7 -p tcp -e 1040 -c 2 -i 6 -a 2 -x {0.0 5.0 -1 ------- null}
d -t 1.33354 -s 6 -d 7 -p tcp -e 1040 -c 2 -i 6 -a 2 -x {0.0 5.0 3 ------- null}
d -t 1.33354 -s 4 -d 7 -p tcp -e 1040 -c 2 -i 6 -a 2 -x {0.0 5.0 3 ------- null}
+ -t 1.334368 -s 3 -d 7 -p tcp -e 1040 -c 2 -i 7 -a 2 -x {0.0 5.0 4 ------- null}
+ -t 1.337952 -s 3 -d 7 -p tcp -e 1040 -c 2 -i 8 -a 2 -x {0.0 5.0 5 ------- null}
- -t 1.337952 -s 3 -d 7 -p tcp -e 1040 -c 2 -i 7 -a 2 -x {0.0 5.0 4 ------- null}
h -t 1.337952 -s 3 -d 7 -p tcp -e 1040 -c 2 -i 7 -a 2 -x {0.0 5.0 -1 ------- null}
d -t 1.337956 -s 6 -d 7 -p tcp -e 1040 -c 2 -i 7 -a 2 -x {0.0 5.0 4 ------- null}
d -t 1.337956 -s 4 -d 7 -p tcp -e 1040 -c 2 -i 7 -a 2 -x {0.0 5.0 4 ------- null}
+ -t 1.338784 -s 3 -d 7 -p tcp -e 1040 -c 2 -i 9 -a 2 -x {0.0 5.0 6 ------- null}
- -t 1.342368 -s 3 -d 7 -p tcp -e 1040 -c 2 -i 8 -a 2 -x {0.0 5.0 5 ------- null}
h -t 1.342368 -s 3 -d 7 -p tcp -e 1040 -c 2 -i 8 -a 2 -x {0.0 5.0 -1 ------- null}
d -t 1.342372 -s 6 -d 7 -p tcp -e 1040 -c 2 -i 8 -a 2 -x {0.0 5.0 5 ------- null}
d -t 1.342372 -s 4 -d 7 -p tcp -e 1040 -c 2 -i 8 -a 2 -x {0.0 5.0 5 ------- null}
- -t 1.346784 -s 3 -d 7 -p tcp -e 1040 -c 2 -i 9 -a 2 -x {0.0 5.0 6 ------- null}
h -t 1.346784 -s 3 -d 7 -p tcp -e 1040 -c 2 -i 9 -a 2 -x {0.0 5.0 -1 ------- null}
d -t 1.346788 -s 6 -d 7 -p tcp -e 1040 -c 2 -i 9 -a 2 -x {0.0 5.0 6 ------- null}
d -t 1.346788 -s 4 -d 7 -p tcp -e 1040 -c 2 -i 9 -a 2 -x {0.0 5.0 6 ------- null}
r -t 1.35354 -s 7 -d 5 -p tcp -e 1040 -c 2 -i 6 -a 2 -x {0.0 5.0 3 ------- null}
h -t 1.35354 -s 5 -d 7 -p ack -e 40 -c 2 -i 10 -a 2 -x {5.0 0.0 3 ------- null}
r -t 1.357956 -s 7 -d 5 -p tcp -e 1040 -c 2 -i 7 -a 2 -x {0.0 5.0 4 ------- null}
h -t 1.357956 -s 5 -d 7 -p ack -e 40 -c 2 -i 11 -a 2 -x {5.0 0.0 4 ------- null}
r -t 1.362372 -s 7 -d 5 -p tcp -e 1040 -c 2 -i 8 -a 2 -x {0.0 5.0 5 ------- null}
h -t 1.362372 -s 5 -d 7 -p ack -e 40 -c 2 -i 12 -a 2 -x {5.0 0.0 5 ------- null}
r -t 1.366788 -s 7 -d 5 -p tcp -e 1040 -c 2 -i 9 -a 2 -x {0.0 5.0 6 ------- null}
h -t 1.366788 -s 5 -d 7 -p ack -e 40 -c 2 -i 13 -a 2 -x {5.0 0.0 6 ------- null}
+ -t 1.37354 -s 5 -d 7 -p ack -e 40 -c 2 -i 10 -a 2 -x {5.0 0.0 3 ------- null}
- -t 1.37354 -s 5 -d 7 -p ack -e 40 -c 2 -i 10 -a 2 -x {5.0 0.0 3 ------- null}
h -t 1.37354 -s 5 -d 7 -p ack -e 40 -c 2 -i 10 -a 2 -x {5.0 0.0 -1 ------- null}
d -t 1.373544 -s 6 -d 7 -p ack -e 40 -c 2 -i 10 -a 2 -x {5.0 0.0 3 ------- null}
d -t 1.373544 -s 4 -d 7 -p ack -e 40 -c 2 -i 10 -a 2 -x {5.0 0.0 3 ------- null}
+ -t 1.377956 -s 5 -d 7 -p ack -e 40 -c 2 -i 11 -a 2 -x {5.0 0.0 4 ------- null}
- -t 1.377956 -s 5 -d 7 -p ack -e 40 -c 2 -i 11 -a 2 -x {5.0 0.0 4 ------- null}
h -t 1.377956 -s 5 -d 7 -p ack -e 40 -c 2 -i 11 -a 2 -x {5.0 0.0 -1 ------- null}
d -t 1.37796 -s 6 -d 7 -p ack -e 40 -c 2 -i 11 -a 2 -x {5.0 0.0 4 ------- null}
d -t 1.37796 -s 4 -d 7 -p ack -e 40 -c 2 -i 11 -a 2 -x {5.0 0.0 4 ------- null}
+ -t 1.382372 -s 5 -d 7 -p ack -e 40 -c 2 -i 12 -a 2 -x {5.0 0.0 5 ------- null}
- -t 1.382372 -s 5 -d 7 -p ack -e 40 -c 2 -i 12 -a 2 -x {5.0 0.0 5 ------- null}
h -t 1.382372 -s 5 -d 7 -p ack -e 40 -c 2 -i 12 -a 2 -x {5.0 0.0 -1 ------- null}
d -t 1.382376 -s 6 -d 7 -p ack -e 40 -c 2 -i 12 -a 2 -x {5.0 0.0 5 ------- null}
d -t 1.382376 -s 4 -d 7 -p ack -e 40 -c 2 -i 12 -a 2 -x {5.0 0.0 5 ------- null}
+ -t 1.386788 -s 5 -d 7 -p ack -e 40 -c 2 -i 13 -a 2 -x {5.0 0.0 6 ------- null}
- -t 1.386788 -s 5 -d 7 -p ack -e 40 -c 2 -i 13 -a 2 -x {5.0 0.0 6 ------- null}
h -t 1.386788 -s 5 -d 7 -p ack -e 40 -c 2 -i 13 -a 2 -x {5.0 0.0 -1 ------- null}
d -t 1.386792 -s 6 -d 7 -p ack -e 40 -c 2 -i 13 -a 2 -x {5.0 0.0 6 ------- null}
d -t 1.386792 -s 4 -d 7 -p ack -e 40 -c 2 -i 13 -a 2 -x {5.0 0.0 6 ------- null}
r -t 1.393544 -s 7 -d 3 -p ack -e 40 -c 2 -i 10 -a 2 -x {5.0 0.0 3 ------- null}
+ -t 1.393544 -s 3 -d 2 -p ack -e 40 -c 2 -i 10 -a 2 -x {5.0 0.0 3 ------- null}
- -t 1.393544 -s 3 -d 2 -p ack -e 40 -c 2 -i 10 -a 2 -x {5.0 0.0 3 ------- null}
h -t 1.393544 -s 3 -d 2 -p ack -e 40 -c 2 -i 10 -a 2 -x {5.0 0.0 -1 ------- null}
r -t 1.39796 -s 7 -d 3 -p ack -e 40 -c 2 -i 11 -a 2 -x {5.0 0.0 4 ------- null}
+ -t 1.39796 -s 3 -d 2 -p ack -e 40 -c 2 -i 11 -a 2 -x {5.0 0.0 4 ------- null}
- -t 1.39796 -s 3 -d 2 -p ack -e 40 -c 2 -i 11 -a 2 -x {5.0 0.0 4 ------- null}
h -t 1.39796 -s 3 -d 2 -p ack -e 40 -c 2 -i 11 -a 2 -x {5.0 0.0 -1 ------- null}
r -t 1.402376 -s 7 -d 3 -p ack -e 40 -c 2 -i 12 -a 2 -x {5.0 0.0 5 ------- null}
+ -t 1.402376 -s 3 -d 2 -p ack -e 40 -c 2 -i 12 -a 2 -x {5.0 0.0 5 ------- null}
- -t 1.402376 -s 3 -d 2 -p ack -e 40 -c 2 -i 12 -a 2 -x {5.0 0.0 5 ------- null}
h -t 1.402376 -s 3 -d 2 -p ack -e 40 -c 2 -i 12 -a 2 -x {5.0 0.0 -1 ------- null}
r -t 1.406792 -s 7 -d 3 -p ack -e 40 -c 2 -i 13 -a 2 -x {5.0 0.0 6 ------- null}
+ -t 1.406792 -s 3 -d 2 -p ack -e 40 -c 2 -i 13 -a 2 -x {5.0 0.0 6 ------- null}
- -t 1.406792 -s 3 -d 2 -p ack -e 40 -c 2 -i 13 -a 2 -x {5.0 0.0 6 ------- null}
h -t 1.406792 -s 3 -d 2 -p ack -e 40 -c 2 -i 13 -a 2 -x {5.0 0.0 -1 ------- null}
r -t 1.413576 -s 3 -d 2 -p ack -e 40 -c 2 -i 10 -a 2 -x {5.0 0.0 3 ------- null}
+ -t 1.413576 -s 2 -d 0 -p ack -e 40 -c 2 -i 10 -a 2 -x {5.0 0.0 3 ------- null}
- -t 1.413576 -s 2 -d 0 -p ack -e 40 -c 2 -i 10 -a 2 -x {5.0 0.0 3 ------- null}
h -t 1.413576 -s 2 -d 0 -p ack -e 40 -c 2 -i 10 -a 2 -x {5.0 0.0 -1 ------- null}
r -t 1.417992 -s 3 -d 2 -p ack -e 40 -c 2 -i 11 -a 2 -x {5.0 0.0 4 ------- null}
+ -t 1.417992 -s 2 -d 0 -p ack -e 40 -c 2 -i 11 -a 2 -x {5.0 0.0 4 ------- null}
- -t 1.417992 -s 2 -d 0 -p ack -e 40 -c 2 -i 11 -a 2 -x {5.0 0.0 4 ------- null}
h -t 1.417992 -s 2 -d 0 -p ack -e 40 -c 2 -i 11 -a 2 -x {5.0 0.0 -1 ------- null}
r -t 1.422408 -s 3 -d 2 -p ack -e 40 -c 2 -i 12 -a 2 -x {5.0 0.0 5 ------- null}
+ -t 1.422408 -s 2 -d 0 -p ack -e 40 -c 2 -i 12 -a 2 -x {5.0 0.0 5 ------- null}
- -t 1.422408 -s 2 -d 0 -p ack -e 40 -c 2 -i 12 -a 2 -x {5.0 0.0 5 ------- null}
h -t 1.422408 -s 2 -d 0 -p ack -e 40 -c 2 -i 12 -a 2 -x {5.0 0.0 -1 ------- null}
r -t 1.423608 -s 2 -d 0 -p ack -e 40 -c 2 -i 10 -a 2 -x {5.0 0.0 3 ------- null}
+ -t 1.423608 -s 0 -d 2 -p tcp -e 1040 -c 2 -i 14 -a 2 -x {0.0 5.0 7 ------- null}
- -t 1.423608 -s 0 -d 2 -p tcp -e 1040 -c 2 -i 14 -a 2 -x {0.0 5.0 7 ------- null}
h -t 1.423608 -s 0 -d 2 -p tcp -e 1040 -c 2 -i 14 -a 2 -x {0.0 5.0 -1 ------- null}
+ -t 1.423608 -s 0 -d 2 -p tcp -e 1040 -c 2 -i 15 -a 2 -x {0.0 5.0 8 ------- null}
- -t 1.42444 -s 0 -d 2 -p tcp -e 1040 -c 2 -i 15 -a 2 -x {0.0 5.0 8 ------- null}
h -t 1.42444 -s 0 -d 2 -p tcp -e 1040 -c 2 -i 15 -a 2 -x {0.0 5.0 -1 ------- null}
r -t 1.426824 -s 3 -d 2 -p ack -e 40 -c 2 -i 13 -a 2 -x {5.0 0.0 6 ------- null}
+ -t 1.426824 -s 2 -d 0 -p ack -e 40 -c 2 -i 13 -a 2 -x {5.0 0.0 6 ------- null}
- -t 1.426824 -s 2 -d 0 -p ack -e 40 -c 2 -i 13 -a 2 -x {5.0 0.0 6 ------- null}
h -t 1.426824 -s 2 -d 0 -p ack -e 40 -c 2 -i 13 -a 2 -x {5.0 0.0 -1 ------- null}
r -t 1.428024 -s 2 -d 0 -p ack -e 40 -c 2 -i 11 -a 2 -x {5.0 0.0 4 ------- null}
+ -t 1.428024 -s 0 -d 2 -p tcp -e 1040 -c 2 -i 16 -a 2 -x {0.0 5.0 9 ------- null}
- -t 1.428024 -s 0 -d 2 -p tcp -e 1040 -c 2 -i 16 -a 2 -x {0.0 5.0 9 ------- null}
h -t 1.428024 -s 0 -d 2 -p tcp -e 1040 -c 2 -i 16 -a 2 -x {0.0 5.0 -1 ------- null}
+ -t 1.428024 -s 0 -d 2 -p tcp -e 1040 -c 2 -i 17 -a 2 -x {0.0 5.0 10 ------- null}
- -t 1.428856 -s 0 -d 2 -p tcp -e 1040 -c 2 -i 17 -a 2 -x {0.0 5.0 10 ------- null}
h -t 1.428856 -s 0 -d 2 -p tcp -e 1040 -c 2 -i 17 -a 2 -x {0.0 5.0 -1 ------- null}
r -t 1.43244 -s 2 -d 0 -p ack -e 40 -c 2 -i 12 -a 2 -x {5.0 0.0 5 ------- null}
+ -t 1.43244 -s 0 -d 2 -p tcp -e 1040 -c 2 -i 18 -a 2 -x {0.0 5.0 11 ------- null}
- -t 1.43244 -s 0 -d 2 -p tcp -e 1040 -c 2 -i 18 -a 2 -x {0.0 5.0 11 ------- null}
h -t 1.43244 -s 0 -d 2 -p tcp -e 1040 -c 2 -i 18 -a 2 -x {0.0 5.0 -1 ------- null}
+ -t 1.43244 -s 0 -d 2 -p tcp -e 1040 -c 2 -i 19 -a 2 -x {0.0 5.0 12 ------- null}
- -t 1.433272 -s 0 -d 2 -p tcp -e 1040 -c 2 -i 19 -a 2 -x {0.0 5.0 12 ------- null}
h -t 1.433272 -s 0 -d 2 -p tcp -e 1040 -c 2 -i 19 -a 2 -x {0.0 5.0 -1 ------- null}
r -t 1.43444 -s 0 -d 2 -p tcp -e 1040 -c 2 -i 14 -a 2 -x {0.0 5.0 7 ------- null}
+ -t 1.43444 -s 2 -d 3 -p tcp -e 1040 -c 2 -i 14 -a 2 -x {0.0 5.0 7 ------- null}
- -t 1.43444 -s 2 -d 3 -p tcp -e 1040 -c 2 -i 14 -a 2 -x {0.0 5.0 7 ------- null}
h -t 1.43444 -s 2 -d 3 -p tcp -e 1040 -c 2 -i 14 -a 2 -x {0.0 5.0 -1 ------- null}
r -t 1.435272 -s 0 -d 2 -p tcp -e 1040 -c 2 -i 15 -a 2 -x {0.0 5.0 8 ------- null}
+ -t 1.435272 -s 2 -d 3 -p tcp -e 1040 -c 2 -i 15 -a 2 -x {0.0 5.0 8 ------- null}
- -t 1.435272 -s 2 -d 3 -p tcp -e 1040 -c 2 -i 15 -a 2 -x {0.0 5.0 8 ------- null}
h -t 1.435272 -s 2 -d 3 -p tcp -e 1040 -c 2 -i 15 -a 2 -x {0.0 5.0 -1 ------- null}
r -t 1.436856 -s 2 -d 0 -p ack -e 40 -c 2 -i 13 -a 2 -x {5.0 0.0 6 ------- null}
+ -t 1.436856 -s 0 -d 2 -p tcp -e 1040 -c 2 -i 20 -a 2 -x {0.0 5.0 13 ------- null}
- -t 1.436856 -s 0 -d 2 -p tcp -e 1040 -c 2 -i 20 -a 2 -x {0.0 5.0 13 ------- null}
h -t 1.436856 -s 0 -d 2 -p tcp -e 1040 -c 2 -i 20 -a 2 -x {0.0 5.0 -1 ------- null}
+ -t 1.436856 -s 0 -d 2 -p tcp -e 1040 -c 2 -i 21 -a 2 -x {0.0 5.0 14 ------- null}
- -t 1.437688 -s 0 -d 2 -p tcp -e 1040 -c 2 -i 21 -a 2 -x {0.0 5.0 14 ------- null}
h -t 1.437688 -s 0 -d 2 -p tcp -e 1040 -c 2 -i 21 -a 2 -x {0.0 5.0 -1 ------- null}
r -t 1.438856 -s 0 -d 2 -p tcp -e 1040 -c 2 -i 16 -a 2 -x {0.0 5.0 9 ------- null}
+ -t 1.438856 -s 2 -d 3 -p tcp -e 1040 -c 2 -i 16 -a 2 -x {0.0 5.0 9 ------- null}
- -t 1.438856 -s 2 -d 3 -p tcp -e 1040 -c 2 -i 16 -a 2 -x {0.0 5.0 9 ------- null}
h -t 1.438856 -s 2 -d 3 -p tcp -e 1040 -c 2 -i 16 -a 2 -x {0.0 5.0 -1 ------- null}
r -t 1.439688 -s 0 -d 2 -p tcp -e 1040 -c 2 -i 17 -a 2 -x {0.0 5.0 10 ------- null}
+ -t 1.439688 -s 2 -d 3 -p tcp -e 1040 -c 2 -i 17 -a 2 -x {0.0 5.0 10 ------- null}
- -t 1.439688 -s 2 -d 3 -p tcp -e 1040 -c 2 -i 17 -a 2 -x {0.0 5.0 10 ------- null}
h -t 1.439688 -s 2 -d 3 -p tcp -e 1040 -c 2 -i 17 -a 2 -x {0.0 5.0 -1 ------- null}
r -t 1.443272 -s 0 -d 2 -p tcp -e 1040 -c 2 -i 18 -a 2 -x {0.0 5.0 11 ------- null}
+ -t 1.443272 -s 2 -d 3 -p tcp -e 1040 -c 2 -i 18 -a 2 -x {0.0 5.0 11 ------- null}
- -t 1.443272 -s 2 -d 3 -p tcp -e 1040 -c 2 -i 18 -a 2 -x {0.0 5.0 11 ------- null}
h -t 1.443272 -s 2 -d 3 -p tcp -e 1040 -c 2 -i 18 -a 2 -x {0.0 5.0 -1 ------- null}
r -t 1.444104 -s 0 -d 2 -p tcp -e 1040 -c 2 -i 19 -a 2 -x {0.0 5.0 12 ------- null}
+ -t 1.444104 -s 2 -d 3 -p tcp -e 1040 -c 2 -i 19 -a 2 -x {0.0 5.0 12 ------- null}
- -t 1.444104 -s 2 -d 3 -p tcp -e 1040 -c 2 -i 19 -a 2 -x {0.0 5.0 12 ------- null}
h -t 1.444104 -s 2 -d 3 -p tcp -e 1040 -c 2 -i 19 -a 2 -x {0.0 5.0 -1 ------- null}
r -t 1.447688 -s 0 -d 2 -p tcp -e 1040 -c 2 -i 20 -a 2 -x {0.0 5.0 13 ------- null}
+ -t 1.447688 -s 2 -d 3 -p tcp -e 1040 -c 2 -i 20 -a 2 -x {0.0 5.0 13 ------- null}
- -t 1.447688 -s 2 -d 3 -p tcp -e 1040 -c 2 -i 20 -a 2 -x {0.0 5.0 13 ------- null}
h -t 1.447688 -s 2 -d 3 -p tcp -e 1040 -c 2 -i 20 -a 2 -x {0.0 5.0 -1 ------- null}
r -t 1.44852 -s 0 -d 2 -p tcp -e 1040 -c 2 -i 21 -a 2 -x {0.0 5.0 14 ------- null}
+ -t 1.44852 -s 2 -d 3 -p tcp -e 1040 -c 2 -i 21 -a 2 -x {0.0 5.0 14 ------- null}
- -t 1.44852 -s 2 -d 3 -p tcp -e 1040 -c 2 -i 21 -a 2 -x {0.0 5.0 14 ------- null}
h -t 1.44852 -s 2 -d 3 -p tcp -e 1040 -c 2 -i 21 -a 2 -x {0.0 5.0 -1 ------- null}
r -t 1.455272 -s 2 -d 3 -p tcp -e 1040 -c 2 -i 14 -a 2 -x {0.0 5.0 7 ------- null}
h -t 1.455272 -s 3 -d 7 -p tcp -e 1040 -c 2 -i 14 -a 2 -x {0.0 5.0 7 ------- null}
r -t 1.456104 -s 2 -d 3 -p tcp -e 1040 -c 2 -i 15 -a 2 -x {0.0 5.0 8 ------- null}
h -t 1.456104 -s 3 -d 7 -p tcp -e 1040 -c 2 -i 15 -a 2 -x {0.0 5.0 8 ------- null}
r -t 1.459688 -s 2 -d 3 -p tcp -e 1040 -c 2 -i 16 -a 2 -x {0.0 5.0 9 ------- null}
h -t 1.459688 -s 3 -d 7 -p tcp -e 1040 -c 2 -i 16 -a 2 -x {0.0 5.0 9 ------- null}
r -t 1.46052 -s 2 -d 3 -p tcp -e 1040 -c 2 -i 17 -a 2 -x {0.0 5.0 10 ------- null}
h -t 1.46052 -s 3 -d 7 -p tcp -e 1040 -c 2 -i 17 -a 2 -x {0.0 5.0 10 ------- null}
r -t 1.464104 -s 2 -d 3 -p tcp -e 1040 -c 2 -i 18 -a 2 -x {0.0 5.0 11 ------- null}
h -t 1.464104 -s 3 -d 7 -p tcp -e 1040 -c 2 -i 18 -a 2 -x {0.0 5.0 11 ------- null}
r -t 1.464936 -s 2 -d 3 -p tcp -e 1040 -c 2 -i 19 -a 2 -x {0.0 5.0 12 ------- null}
h -t 1.464936 -s 3 -d 7 -p tcp -e 1040 -c 2 -i 19 -a 2 -x {0.0 5.0 12 ------- null}
r -t 1.46852 -s 2 -d 3 -p tcp -e 1040 -c 2 -i 20 -a 2 -x {0.0 5.0 13 ------- null}
h -t 1.46852 -s 3 -d 7 -p tcp -e 1040 -c 2 -i 20 -a 2 -x {0.0 5.0 13 ------- null}
r -t 1.469352 -s 2 -d 3 -p tcp -e 1040 -c 2 -i 21 -a 2 -x {0.0 5.0 14 ------- null}
h -t 1.469352 -s 3 -d 7 -p tcp -e 1040 -c 2 -i 21 -a 2 -x {0.0 5.0 14 ------- null}
+ -t 1.475272 -s 3 -d 7 -p tcp -e 1040 -c 2 -i 14 -a 2 -x {0.0 5.0 7 ------- null}
- -t 1.475272 -s 3 -d 7 -p tcp -e 1040 -c 2 -i 14 -a 2 -x {0.0 5.0 7 ------- null}
h -t 1.475272 -s 3 -d 7 -p tcp -e 1040 -c 2 -i 14 -a 2 -x {0.0 5.0 -1 ------- null}
d -t 1.475276 -s 6 -d 7 -p tcp -e 1040 -c 2 -i 14 -a 2 -x {0.0 5.0 7 ------- null}
d -t 1.475276 -s 4 -d 7 -p tcp -e 1040 -c 2 -i 14 -a 2 -x {0.0 5.0 7 ------- null}
+ -t 1.476104 -s 3 -d 7 -p tcp -e 1040 -c 2 -i 15 -a 2 -x {0.0 5.0 8 ------- null}
+ -t 1.479688 -s 3 -d 7 -p tcp -e 1040 -c 2 -i 16 -a 2 -x {0.0 5.0 9 ------- null}
- -t 1.479688 -s 3 -d 7 -p tcp -e 1040 -c 2 -i 15 -a 2 -x {0.0 5.0 8 ------- null}
h -t 1.479688 -s 3 -d 7 -p tcp -e 1040 -c 2 -i 15 -a 2 -x {0.0 5.0 -1 ------- null}
d -t 1.479692 -s 6 -d 7 -p tcp -e 1040 -c 2 -i 15 -a 2 -x {0.0 5.0 8 ------- null}
d -t 1.479692 -s 4 -d 7 -p tcp -e 1040 -c 2 -i 15 -a 2 -x {0.0 5.0 8 ------- null}
+ -t 1.48052 -s 3 -d 7 -p tcp -e 1040 -c 2 -i 17 -a 2 -x {0.0 5.0 10 ------- null}
+ -t 1.484104 -s 3 -d 7 -p tcp -e 1040 -c 2 -i 18 -a 2 -x {0.0 5.0 11 ------- null}
- -t 1.484104 -s 3 -d 7 -p tcp -e 1040 -c 2 -i 16 -a 2 -x {0.0 5.0 9 ------- null}
h -t 1.484104 -s 3 -d 7 -p tcp -e 1040 -c 2 -i 16 -a 2 -x {0.0 5.0 -1 ------- null}
d -t 1.484108 -s 6 -d 7 -p tcp -e 1040 -c 2 -i 16 -a 2 -x {0.0 5.0 9 ------- null}
d -t 1.484108 -s 4 -d 7 -p tcp -e 1040 -c 2 -i 16 -a 2 -x {0.0 5.0 9 ------- null}
+ -t 1.484936 -s 3 -d 7 -p tcp -e 1040 -c 2 -i 19 -a 2 -x {0.0 5.0 12 ------- null}
+ -t 1.48852 -s 3 -d 7 -p tcp -e 1040 -c 2 -i 20 -a 2 -x {0.0 5.0 13 ------- null}
- -t 1.48852 -s 3 -d 7 -p tcp -e 1040 -c 2 -i 17 -a 2 -x {0.0 5.0 10 ------- null}
h -t 1.48852 -s 3 -d 7 -p tcp -e 1040 -c 2 -i 17 -a 2 -x {0.0 5.0 -1 ------- null}
d -t 1.488524 -s 6 -d 7 -p tcp -e 1040 -c 2 -i 17 -a 2 -x {0.0 5.0 10 ------- null}
d -t 1.488524 -s 4 -d 7 -p tcp -e 1040 -c 2 -i 17 -a 2 -x {0.0 5.0 10 ------- null}
+ -t 1.489352 -s 3 -d 7 -p tcp -e 1040 -c 2 -i 21 -a 2 -x {0.0 5.0 14 ------- null}
- -t 1.492936 -s 3 -d 7 -p tcp -e 1040 -c 2 -i 18 -a 2 -x {0.0 5.0 11 ------- null}
h -t 1.492936 -s 3 -d 7 -p tcp -e 1040 -c 2 -i 18 -a 2 -x {0.0 5.0 -1 ------- null}
d -t 1.49294 -s 6 -d 7 -p tcp -e 1040 -c 2 -i 18 -a 2 -x {0.0 5.0 11 ------- null}
d -t 1.49294 -s 4 -d 7 -p tcp -e 1040 -c 2 -i 18 -a 2 -x {0.0 5.0 11 ------- null}
r -t 1.495276 -s 7 -d 5 -p tcp -e 1040 -c 2 -i 14 -a 2 -x {0.0 5.0 7 ------- null}
h -t 1.495276 -s 5 -d 7 -p ack -e 40 -c 2 -i 22 -a 2 -x {5.0 0.0 7 ------- null}
- -t 1.497352 -s 3 -d 7 -p tcp -e 1040 -c 2 -i 19 -a 2 -x {0.0 5.0 12 ------- null}
h -t 1.497352 -s 3 -d 7 -p tcp -e 1040 -c 2 -i 19 -a 2 -x {0.0 5.0 -1 ------- null}
d -t 1.497356 -s 6 -d 7 -p tcp -e 1040 -c 2 -i 19 -a 2 -x {0.0 5.0 12 ------- null}
d -t 1.497356 -s 4 -d 7 -p tcp -e 1040 -c 2 -i 19 -a 2 -x {0.0 5.0 12 ------- null}
r -t 1.499692 -s 7 -d 5 -p tcp -e 1040 -c 2 -i 15 -a 2 -x {0.0 5.0 8 ------- null}
h -t 1.499692 -s 5 -d 7 -p ack -e 40 -c 2 -i 23 -a 2 -x {5.0 0.0 8 ------- null}
- -t 1.501768 -s 3 -d 7 -p tcp -e 1040 -c 2 -i 20 -a 2 -x {0.0 5.0 13 ------- null}
h -t 1.501768 -s 3 -d 7 -p tcp -e 1040 -c 2 -i 20 -a 2 -x {0.0 5.0 -1 ------- null}
d -t 1.501772 -s 6 -d 7 -p tcp -e 1040 -c 2 -i 20 -a 2 -x {0.0 5.0 13 ------- null}
d -t 1.501772 -s 4 -d 7 -p tcp -e 1040 -c 2 -i 20 -a 2 -x {0.0 5.0 13 ------- null}
r -t 1.504108 -s 7 -d 5 -p tcp -e 1040 -c 2 -i 16 -a 2 -x {0.0 5.0 9 ------- null}
h -t 1.504108 -s 5 -d 7 -p ack -e 40 -c 2 -i 24 -a 2 -x {5.0 0.0 9 ------- null}
- -t 1.506184 -s 3 -d 7 -p tcp -e 1040 -c 2 -i 21 -a 2 -x {0.0 5.0 14 ------- null}
h -t 1.506184 -s 3 -d 7 -p tcp -e 1040 -c 2 -i 21 -a 2 -x {0.0 5.0 -1 ------- null}
d -t 1.506188 -s 6 -d 7 -p tcp -e 1040 -c 2 -i 21 -a 2 -x {0.0 5.0 14 ------- null}
d -t 1.506188 -s 4 -d 7 -p tcp -e 1040 -c 2 -i 21 -a 2 -x {0.0 5.0 14 ------- null}
r -t 1.508524 -s 7 -d 5 -p tcp -e 1040 -c 2 -i 17 -a 2 -x {0.0 5.0 10 ------- null}
h -t 1.508524 -s 5 -d 7 -p ack -e 40 -c 2 -i 25 -a 2 -x {5.0 0.0 10 ------- null}
r -t 1.51294 -s 7 -d 5 -p tcp -e 1040 -c 2 -i 18 -a 2 -x {0.0 5.0 11 ------- null}
h -t 1.51294 -s 5 -d 7 -p ack -e 40 -c 2 -i 26 -a 2 -x {5.0 0.0 11 ------- null}
+ -t 1.515276 -s 5 -d 7 -p ack -e 40 -c 2 -i 22 -a 2 -x {5.0 0.0 7 ------- null}
- -t 1.515276 -s 5 -d 7 -p ack -e 40 -c 2 -i 22 -a 2 -x {5.0 0.0 7 ------- null}
h -t 1.515276 -s 5 -d 7 -p ack -e 40 -c 2 -i 22 -a 2 -x {5.0 0.0 -1 ------- null}
d -t 1.51528 -s 6 -d 7 -p ack -e 40 -c 2 -i 22 -a 2 -x {5.0 0.0 7 ------- null}
d -t 1.51528 -s 4 -d 7 -p ack -e 40 -c 2 -i 22 -a 2 -x {5.0 0.0 7 ------- null}
r -t 1.517356 -s 7 -d 5 -p tcp -e 1040 -c 2 -i 19 -a 2 -x {0.0 5.0 12 ------- null}
h -t 1.517356 -s 5 -d 7 -p ack -e 40 -c 2 -i 27 -a 2 -x {5.0 0.0 12 ------- null}
+ -t 1.519692 -s 5 -d 7 -p ack -e 40 -c 2 -i 23 -a 2 -x {5.0 0.0 8 ------- null}
- -t 1.519692 -s 5 -d 7 -p ack -e 40 -c 2 -i 23 -a 2 -x {5.0 0.0 8 ------- null}
h -t 1.519692 -s 5 -d 7 -p ack -e 40 -c 2 -i 23 -a 2 -x {5.0 0.0 -1 ------- null}
d -t 1.519696 -s 6 -d 7 -p ack -e 40 -c 2 -i 23 -a 2 -x {5.0 0.0 8 ------- null}
d -t 1.519696 -s 4 -d 7 -p ack -e 40 -c 2 -i 23 -a 2 -x {5.0 0.0 8 ------- null}
r -t 1.521772 -s 7 -d 5 -p tcp -e 1040 -c 2 -i 20 -a 2 -x {0.0 5.0 13 ------- null}
h -t 1.521772 -s 5 -d 7 -p ack -e 40 -c 2 -i 28 -a 2 -x {5.0 0.0 13 ------- null}
+ -t 1.524108 -s 5 -d 7 -p ack -e 40 -c 2 -i 24 -a 2 -x {5.0 0.0 9 ------- null}
- -t 1.524108 -s 5 -d 7 -p ack -e 40 -c 2 -i 24 -a 2 -x {5.0 0.0 9 ------- null}
h -t 1.524108 -s 5 -d 7 -p ack -e 40 -c 2 -i 24 -a 2 -x {5.0 0.0 -1 ------- null}
d -t 1.524112 -s 6 -d 7 -p ack -e 40 -c 2 -i 24 -a 2 -x {5.0 0.0 9 ------- null}
d -t 1.524112 -s 4 -d 7 -p ack -e 40 -c 2 -i 24 -a 2 -x {5.0 0.0 9 ------- null}
r -t 1.526188 -s 7 -d 5 -p tcp -e 1040 -c 2 -i 21 -a 2 -x {0.0 5.0 14 ------- null}
h -t 1.526188 -s 5 -d 7 -p ack -e 40 -c 2 -i 29 -a 2 -x {5.0 0.0 14 ------- null}
+ -t 1.528524 -s 5 -d 7 -p ack -e 40 -c 2 -i 25 -a 2 -x {5.0 0.0 10 ------- null}
- -t 1.528524 -s 5 -d 7 -p ack -e 40 -c 2 -i 25 -a 2 -x {5.0 0.0 10 ------- null}
h -t 1.528524 -s 5 -d 7 -p ack -e 40 -c 2 -i 25 -a 2 -x {5.0 0.0 -1 ------- null}