V -t * -v 1.0a5 -a 0
A -t * -n 1 -p 0 -o 0x7fffffff -c 30 -a 1
A -t * -h 1 -m 1073741823 -s 0
c -t * -i 1 -n Blue
c -t * -i 2 -n Red
n -t * -a 0 -s 0 -S UP -v circle -c black -i black
n -t * -a 1 -s 1 -S UP -v circle -c black -i black
n -t * -a 2 -s 2 -S UP -v circle -c black -i black
n -t * -a 3 -s 3 -S UP -v circle -c black -i black
l -t * -s 0 -d 2 -S UP -r 10000000 -D 0.01 -c black -o right-down
l -t * -s 1 -d 2 -S UP -r 10000000 -D 0.02 -c black -o right-up
l -t * -s 2 -d 3 -S UP -r 10000000 -D 0.02 -c black -o right
q -t * -s 3 -d 2 -a 0.5
q -t * -s 2 -d 3 -a 0.5
+ -t 1 -s 0 -d 2 -p tcp -e 40 -c 2 -i 0 -a 2 -x {0.0 3.0 0 ------- null}
- -t 1 -s 0 -d 2 -p tcp -e 40 -c 2 -i 0 -a 2 -x {0.0 3.0 0 ------- null}
h -t 1 -s 0 -d 2 -p tcp -e 40 -c 2 -i 0 -a 2 -x {0.0 3.0 -1 ------- null}
r -t 1.010032 -s 0 -d 2 -p tcp -e 40 -c 2 -i 0 -a 2 -x {0.0 3.0 0 ------- null}
+ -t 1.010032 -s 2 -d 3 -p tcp -e 40 -c 2 -i 0 -a 2 -x {0.0 3.0 0 ------- null}
- -t 1.010032 -s 2 -d 3 -p tcp -e 40 -c 2 -i 0 -a 2 -x {0.0 3.0 0 ------- null}
h -t 1.010032 -s 2 -d 3 -p tcp -e 40 -c 2 -i 0 -a 2 -x {0.0 3.0 -1 ------- null}
r -t 1.030064 -s 2 -d 3 -p tcp -e 40 -c 2 -i 0 -a 2 -x {0.0 3.0 0 ------- null}
+ -t 1.030064 -s 3 -d 2 -p ack -e 40 -c 2 -i 1 -a 2 -x {3.0 0.0 0 ------- null}
- -t 1.030064 -s 3 -d 2 -p ack -e 40 -c 2 -i 1 -a 2 -x {3.0 0.0 0 ------- null}
h -t 1.030064 -s 3 -d 2 -p ack -e 40 -c 2 -i 1 -a 2 -x {3.0 0.0 -1 ------- null}
r -t 1.050096 -s 3 -d 2 -p ack -e 40 -c 2 -i 1 -a 2 -x {3.0 0.0 0 ------- null}
+ -t 1.050096 -s 2 -d 0 -p ack -e 40 -c 2 -i 1 -a 2 -x {3.0 0.0 0 ------- null}
- -t 1.050096 -s 2 -d 0 -p ack -e 40 -c 2 -i 1 -a 2 -x {3.0 0.0 0 ------- null}
h -t 1.050096 -s 2 -d 0 -p ack -e 40 -c 2 -i 1 -a 2 -x {3.0 0.0 -1 ------- null}
r -t 1.060128 -s 2 -d 0 -p ack -e 40 -c 2 -i 1 -a 2 -x {3.0 0.0 0 ------- null}
+ -t 1.060128 -s 0 -d 2 -p tcp -e 1040 -c 2 -i 2 -a 2 -x {0.0 3.0 1 ------- null}
- -t 1.060128 -s 0 -d 2 -p tcp -e 1040 -c 2 -i 2 -a 2 -x {0.0 3.0 1 ------- null}
h -t 1.060128 -s 0 -d 2 -p tcp -e 1040 -c 2 -i 2 -a 2 -x {0.0 3.0 -1 ------- null}
+ -t 1.060128 -s 0 -d 2 -p tcp -e 1040 -c 2 -i 3 -a 2 -x {0.0 3.0 2 ------- null}
- -t 1.06096 -s 0 -d 2 -p tcp -e 1040 -c 2 -i 3 -a 2 -x {0.0 3.0 2 ------- null}
h -t 1.06096 -s 0 -d 2 -p tcp -e 1040 -c 2 -i 3 -a 2 -x {0.0 3.0 -1 ------- null}
r -t 1.07096 -s 0 -d 2 -p tcp -e 1040 -c 2 -i 2 -a 2 -x {0.0 3.0 1 ------- null}
+ -t 1.07096 -s 2 -d 3 -p tcp -e 1040 -c 2 -i 2 -a 2 -x {0.0 3.0 1 ------- null}
- -t 1.07096 -s 2 -d 3 -p tcp -e 1040 -c 2 -i 2 -a 2 -x {0.0 3.0 1 ------- null}
h -t 1.07096 -s 2 -d 3 -p tcp -e 1040 -c 2 -i 2 -a 2 -x {0.0 3.0 -1 ------- null}
r -t 1.071792 -s 0 -d 2 -p tcp -e 1040 -c 2 -i 3 -a 2 -x {0.0 3.0 2 ------- null}
+ -t 1.071792 -s 2 -d 3 -p tcp -e 1040 -c 2 -i 3 -a 2 -x {0.0 3.0 2 ------- null}
- -t 1.071792 -s 2 -d 3 -p tcp -e 1040 -c 2 -i 3 -a 2 -x {0.0 3.0 2 ------- null}
h -t 1.071792 -s 2 -d 3 -p tcp -e 1040 -c 2 -i 3 -a 2 -x {0.0 3.0 -1 ------- null}
r -t 1.091792 -s 2 -d 3 -p tcp -e 1040 -c 2 -i 2 -a 2 -x {0.0 3.0 1 ------- null}
+ -t 1.091792 -s 3 -d 2 -p ack -e 40 -c 2 -i 4 -a 2 -x {3.0 0.0 1 ------- null}
- -t 1.091792 -s 3 -d 2 -p ack -e 40 -c 2 -i 4 -a 2 -x {3.0 0.0 1 ------- null}
h -t 1.091792 -s 3 -d 2 -p ack -e 40 -c 2 -i 4 -a 2 -x {3.0 0.0 -1 ------- null}
r -t 1.092624 -s 2 -d 3 -p tcp -e 1040 -c 2 -i 3 -a 2 -x {0.0 3.0 2 ------- null}
+ -t 1.092624 -s 3 -d 2 -p ack -e 40 -c 2 -i 5 -a 2 -x {3.0 0.0 2 ------- null}
- -t 1.092624 -s 3 -d 2 -p ack -e 40 -c 2 -i 5 -a 2 -x {3.0 0.0 2 ------- null}
h -t 1.092624 -s 3 -d 2 -p ack -e 40 -c 2 -i 5 -a 2 -x {3.0 0.0 -1 ------- null}
r -t 1.111824 -s 3 -d 2 -p ack -e 40 -c 2 -i 4 -a 2 -x {3.0 0.0 1 ------- null}
+ -t 1.111824 -s 2 -d 0 -p ack -e 40 -c 2 -i 4 -a 2 -x {3.0 0.0 1 ------- null}
- -t 1.111824 -s 2 -d 0 -p ack -e 40 -c 2 -i 4 -a 2 -x {3.0 0.0 1 ------- null}
h -t 1.111824 -s 2 -d 0 -p ack -e 40 -c 2 -i 4 -a 2 -x {3.0 0.0 -1 ------- null}
r -t 1.112656 -s 3 -d 2 -p ack -e 40 -c 2 -i 5 -a 2 -x {3.0 0.0 2 ------- null}
+ -t 1.112656 -s 2 -d 0 -p ack -e 40 -c 2 -i 5 -a 2 -x {3.0 0.0 2 ------- null}
- -t 1.112656 -s 2 -d 0 -p ack -e 40 -c 2 -i 5 -a 2 -x {3.0 0.0 2 ------- null}
h -t 1.112656 -s 2 -d 0 -p ack -e 40 -c 2 -i 5 -a 2 -x {3.0 0.0 -1 ------- null}
r -t 1.121856 -s 2 -d 0 -p ack -e 40 -c 2 -i 4 -a 2 -x {3.0 0.0 1 ------- null}
+ -t 1.121856 -s 0 -d 2 -p tcp -e 1040 -c 2 -i 6 -a 2 -x {0.0 3.0 3 ------- null}
- -t 1.121856 -s 0 -d 2 -p tcp -e 1040 -c 2 -i 6 -a 2 -x {0.0 3.0 3 ------- null}
h -t 1.121856 -s 0 -d 2 -p tcp -e 1040 -c 2 -i 6 -a 2 -x {0.0 3.0 -1 ------- null}
+ -t 1.121856 -s 0 -d 2 -p tcp -e 1040 -c 2 -i 7 -a 2 -x {0.0 3.0 4 ------- null}
r -t 1.122688 -s 2 -d 0 -p ack -e 40 -c 2 -i 5 -a 2 -x {3.0 0.0 2 ------- null}
+ -t 1.122688 -s 0 -d 2 -p tcp -e 1040 -c 2 -i 8 -a 2 -x {0.0 3.0 5 ------- null}
+ -t 1.122688 -s 0 -d 2 -p tcp -e 1040 -c 2 -i 9 -a 2 -x {0.0 3.0 6 ------- null}
- -t 1.122688 -s 0 -d 2 -p tcp -e 1040 -c 2 -i 7 -a 2 -x {0.0 3.0 4 ------- null}
h -t 1.122688 -s 0 -d 2 -p tcp -e 1040 -c 2 -i 7 -a 2 -x {0.0 3.0 -1 ------- null}
- -t 1.12352 -s 0 -d 2 -p tcp -e 1040 -c 2 -i 8 -a 2 -x {0.0 3.0 5 ------- null}
h -t 1.12352 -s 0 -d 2 -p tcp -e 1040 -c 2 -i 8 -a 2 -x {0.0 3.0 -1 ------- null}
- -t 1.124352 -s 0 -d 2 -p tcp -e 1040 -c 2 -i 9 -a 2 -x {0.0 3.0 6 ------- null}
h -t 1.124352 -s 0 -d 2 -p tcp -e 1040 -c 2 -i 9 -a 2 -x {0.0 3.0 -1 ------- null}
r -t 1.132688 -s 0 -d 2 -p tcp -e 1040 -c 2 -i 6 -a 2 -x {0.0 3.0 3 ------- null}
+ -t 1.132688 -s 2 -d 3 -p tcp -e 1040 -c 2 -i 6 -a 2 -x {0.0 3.0 3 ------- null}
- -t 1.132688 -s 2 -d 3 -p tcp -e 1040 -c 2 -i 6 -a 2 -x {0.0 3.0 3 ------- null}
h -t 1.132688 -s 2 -d 3 -p tcp -e 1040 -c 2 -i 6 -a 2 -x {0.0 3.0 -1 ------- null}
r -t 1.13352 -s 0 -d 2 -p tcp -e 1040 -c 2 -i 7 -a 2 -x {0.0 3.0 4 ------- null}
+ -t 1.13352 -s 2 -d 3 -p tcp -e 1040 -c 2 -i 7 -a 2 -x {0.0 3.0 4 ------- null}
- -t 1.13352 -s 2 -d 3 -p tcp -e 1040 -c 2 -i 7 -a 2 -x {0.0 3.0 4 ------- null}
h -t 1.13352 -s 2 -d 3 -p tcp -e 1040 -c 2 -i 7 -a 2 -x {0.0 3.0 -1 ------- null}
r -t 1.134352 -s 0 -d 2 -p tcp -e 1040 -c 2 -i 8 -a 2 -x {0.0 3.0 5 ------- null}
+ -t 1.134352 -s 2 -d 3 -p tcp -e 1040 -c 2 -i 8 -a 2 -x {0.0 3.0 5 ------- null}
- -t 1.134352 -s 2 -d 3 -p tcp -e 1040 -c 2 -i 8 -a 2 -x {0.0 3.0 5 ------- null}
h -t 1.134352 -s 2 -d 3 -p tcp -e 1040 -c 2 -i 8 -a 2 -x {0.0 3.0 -1 ------- null}
r -t 1.135184 -s 0 -d 2 -p tcp -e 1040 -c 2 -i 9 -a 2 -x {0.0 3.0 6 ------- null}
+ -t 1.135184 -s 2 -d 3 -p tcp -e 1040 -c 2 -i 9 -a 2 -x {0.0 3.0 6 ------- null}
- -t 1.135184 -s 2 -d 3 -p tcp -e 1040 -c 2 -i 9 -a 2 -x {0.0 3.0 6 ------- null}
h -t 1.135184 -s 2 -d 3 -p tcp -e 1040 -c 2 -i 9 -a 2 -x {0.0 3.0 -1 ------- null}
r -t 1.15352 -s 2 -d 3 -p tcp -e 1040 -c 2 -i 6 -a 2 -x {0.0 3.0 3 ------- null}
+ -t 1.15352 -s 3 -d 2 -p ack -e 40 -c 2 -i 10 -a 2 -x {3.0 0.0 3 ------- null}
- -t 1.15352 -s 3 -d 2 -p ack -e 40 -c 2 -i 10 -a 2 -x {3.0 0.0 3 ------- null}
h -t 1.15352 -s 3 -d 2 -p ack -e 40 -c 2 -i 10 -a 2 -x {3.0 0.0 -1 ------- null}
r -t 1.154352 -s 2 -d 3 -p tcp -e 1040 -c 2 -i 7 -a 2 -x {0.0 3.0 4 ------- null}
+ -t 1.154352 -s 3 -d 2 -p ack -e 40 -c 2 -i 11 -a 2 -x {3.0 0.0 4 ------- null}
- -t 1.154352 -s 3 -d 2 -p ack -e 40 -c 2 -i 11 -a 2 -x {3.0 0.0 4 ------- null}
h -t 1.154352 -s 3 -d 2 -p ack -e 40 -c 2 -i 11 -a 2 -x {3.0 0.0 -1 ------- null}
r -t 1.155184 -s 2 -d 3 -p tcp -e 1040 -c 2 -i 8 -a 2 -x {0.0 3.0 5 ------- null}
+ -t 1.155184 -s 3 -d 2 -p ack -e 40 -c 2 -i 12 -a 2 -x {3.0 0.0 5 ------- null}
- -t 1.155184 -s 3 -d 2 -p ack -e 40 -c 2 -i 12 -a 2 -x {3.0 0.0 5 ------- null}
h -t 1.155184 -s 3 -d 2 -p ack -e 40 -c 2 -i 12 -a 2 -x {3.0 0.0 -1 ------- null}
r -t 1.156016 -s 2 -d 3 -p tcp -e 1040 -c 2 -i 9 -a 2 -x {0.0 3.0 6 ------- null}
+ -t 1.156016 -s 3 -d 2 -p ack -e 40 -c 2 -i 13 -a 2 -x {3.0 0.0 6 ------- null}
- -t 1.156016 -s 3 -d 2 -p ack -e 40 -c 2 -i 13 -a 2 -x {3.0 0.0 6 ------- null}
h -t 1.156016 -s 3 -d 2 -p ack -e 40 -c 2 -i 13 -a 2 -x {3.0 0.0 -1 ------- null}
r -t 1.173552 -s 3 -d 2 -p ack -e 40 -c 2 -i 10 -a 2 -x {3.0 0.0 3 ------- null}
+ -t 1.173552 -s 2 -d 0 -p ack -e 40 -c 2 -i 10 -a 2 -x {3.0 0.0 3 ------- null}
- -t 1.173552 -s 2 -d 0 -p ack -e 40 -c 2 -i 10 -a 2 -x {3.0 0.0 3 ------- null}
h -t 1.173552 -s 2 -d 0 -p ack -e 40 -c 2 -i 10 -a 2 -x {3.0 0.0 -1 ------- null}
r -t 1.174384 -s 3 -d 2 -p ack -e 40 -c 2 -i 11 -a 2 -x {3.0 0.0 4 ------- null}
+ -t 1.174384 -s 2 -d 0 -p ack -e 40 -c 2 -i 11 -a 2 -x {3.0 0.0 4 ------- null}
- -t 1.174384 -s 2 -d 0 -p ack -e 40 -c 2 -i 11 -a 2 -x {3.0 0.0 4 ------- null}
h -t 1.174384 -s 2 -d 0 -p ack -e 40 -c 2 -i 11 -a 2 -x {3.0 0.0 -1 ------- null}
r -t 1.175216 -s 3 -d 2 -p ack -e 40 -c 2 -i 12 -a 2 -x {3.0 0.0 5 ------- null}
+ -t 1.175216 -s 2 -d 0 -p ack -e 40 -c 2 -i 12 -a 2 -x {3.0 0.0 5 ------- null}
- -t 1.175216 -s 2 -d 0 -p ack -e 40 -c 2 -i 12 -a 2 -x {3.0 0.0 5 ------- null}
h -t 1.175216 -s 2 -d 0 -p ack -e 40 -c 2 -i 12 -a 2 -x {3.0 0.0 -1 ------- null}
r -t 1.176048 -s 3 -d 2 -p ack -e 40 -c 2 -i 13 -a 2 -x {3.0 0.0 6 ------- null}
+ -t 1.176048 -s 2 -d 0 -p ack -e 40 -c 2 -i 13 -a 2 -x {3.0 0.0 6 ------- null}
- -t 1.176048 -s 2 -d 0 -p ack -e 40 -c 2 -i 13 -a 2 -x {3.0 0.0 6 ------- null}
h -t 1.176048 -s 2 -d 0 -p ack -e 40 -c 2 -i 13 -a 2 -x {3.0 0.0 -1 ------- null}
r -t 1.183584 -s 2 -d 0 -p ack -e 40 -c 2 -i 10 -a 2 -x {3.0 0.0 3 ------- null}
+ -t 1.183584 -s 0 -d 2 -p tcp -e 1040 -c 2 -i 14 -a 2 -x {0.0 3.0 7 ------- null}
- -t 1.183584 -s 0 -d 2 -p tcp -e 1040 -c 2 -i 14 -a 2 -x {0.0 3.0 7 ------- null}
h -t 1.183584 -s 0 -d 2 -p tcp -e 1040 -c 2 -i 14 -a 2 -x {0.0 3.0 -1 ------- null}
+ -t 1.183584 -s 0 -d 2 -p tcp -e 1040 -c 2 -i 15 -a 2 -x {0.0 3.0 8 ------- null}
r -t 1.184416 -s 2 -d 0 -p ack -e 40 -c 2 -i 11 -a 2 -x {3.0 0.0 4 ------- null}
+ -t 1.184416 -s 0 -d 2 -p tcp -e 1040 -c 2 -i 16 -a 2 -x {0.0 3.0 9 ------- null}
+ -t 1.184416 -s 0 -d 2 -p tcp -e 1040 -c 2 -i 17 -a 2 -x {0.0 3.0 10 ------- null}
- -t 1.184416 -s 0 -d 2 -p tcp -e 1040 -c 2 -i 15 -a 2 -x {0.0 3.0 8 ------- null}
h -t 1.184416 -s 0 -d 2 -p tcp -e 1040 -c 2 -i 15 -a 2 -x {0.0 3.0 -1 ------- null}
r -t 1.185248 -s 2 -d 0 -p ack -e 40 -c 2 -i 12 -a 2 -x {3.0 0.0 5 ------- null}
+ -t 1.185248 -s 0 -d 2 -p tcp -e 1040 -c 2 -i 18 -a 2 -x {0.0 3.0 11 ------- null}
+ -t 1.185248 -s 0 -d 2 -p tcp -e 1040 -c 2 -i 19 -a 2 -x {0.0 3.0 12 ------- null}
- -t 1.185248 -s 0 -d 2 -p tcp -e 1040 -c 2 -i 16 -a 2 -x {0.0 3.0 9 ------- null}
h -t 1.185248 -s 0 -d 2 -p tcp -e 1040 -c 2 -i 16 -a 2 -x {0.0 3.0 -1 ------- null}
r -t 1.18608 -s 2 -d 0 -p ack -e 40 -c 2 -i 13 -a 2 -x {3.0 0.0 6 ------- null}
+ -t 1.18608 -s 0 -d 2 -p tcp -e 1040 -c 2 -i 20 -a 2 -x {0.0 3.0 13 ------- null}
+ -t 1.18608 -s 0 -d 2 -p tcp -e 1040 -c 2 -i 21 -a 2 -x {0.0 3.0 14 ------- null}
- -t 1.18608 -s 0 -d 2 -p tcp -e 1040 -c 2 -i 17 -a 2 -x {0.0 3.0 10 ------- null}
h -t 1.18608 -s 0 -d 2 -p tcp -e 1040 -c 2 -i 17 -a 2 -x {0.0 3.0 -1 ------- null}
- -t 1.186912 -s 0 -d 2 -p tcp -e 1040 -c 2 -i 18 -a 2 -x {0.0 3.0 11 ------- null}
h -t 1.186912 -s 0 -d 2 -p tcp -e 1040 -c 2 -i 18 -a 2 -x {0.0 3.0 -1 ------- null}
- -t 1.187744 -s 0 -d 2 -p tcp -e 1040 -c 2 -i 19 -a 2 -x {0.0 3.0 12 ------- null}
h -t 1.187744 -s 0 -d 2 -p tcp -e 1040 -c 2 -i 19 -a 2 -x {0.0 3.0 -1 ------- null}
- -t 1.188576 -s 0 -d 2 -p tcp -e 1040 -c 2 -i 20 -a 2 -x {0.0 3.0 13 ------- null}
h -t 1.188576 -s 0 -d 2 -p tcp -e 1040 -c 2 -i 20 -a 2 -x {0.0 3.0 -1 ------- null}
- -t 1.189408 -s 0 -d 2 -p tcp -e 1040 -c 2 -i 21 -a 2 -x {0.0 3.0 14 ------- null}
h -t 1.189408 -s 0 -d 2 -p tcp -e 1040 -c 2 -i 21 -a 2 -x {0.0 3.0 -1 ------- null}
r -t 1.194416 -s 0 -d 2 -p tcp -e 1040 -c 2 -i 14 -a 2 -x {0.0 3.0 7 ------- null}
+ -t 1.194416 -s 2 -d 3 -p tcp -e 1040 -c 2 -i 14 -a 2 -x {0.0 3.0 7 ------- null}
- -t 1.194416 -s 2 -d 3 -p tcp -e 1040 -c 2 -i 14 -a 2 -x {0.0 3.0 7 ------- null}
h -t 1.194416 -s 2 -d 3 -p tcp -e 1040 -c 2 -i 14 -a 2 -x {0.0 3.0 -1 ------- null}
r -t 1.195248 -s 0 -d 2 -p tcp -e 1040 -c 2 -i 15 -a 2 -x {0.0 3.0 8 ------- null}
+ -t 1.195248 -s 2 -d 3 -p tcp -e 1040 -c 2 -i 15 -a 2 -x {0.0 3.0 8 ------- null}
- -t 1.195248 -s 2 -d 3 -p tcp -e 1040 -c 2 -i 15 -a 2 -x {0.0 3.0 8 ------- null}
h -t 1.195248 -s 2 -d 3 -p tcp -e 1040 -c 2 -i 15 -a 2 -x {0.0 3.0 -1 ------- null}
r -t 1.19608 -s 0 -d 2 -p tcp -e 1040 -c 2 -i 16 -a 2 -x {0.0 3.0 9 ------- null}
+ -t 1.19608 -s 2 -d 3 -p tcp -e 1040 -c 2 -i 16 -a 2 -x {0.0 3.0 9 ------- null}
- -t 1.19608 -s 2 -d 3 -p tcp -e 1040 -c 2 -i 16 -a 2 -x {0.0 3.0 9 ------- null}
h -t 1.19608 -s 2 -d 3 -p tcp -e 1040 -c 2 -i 16 -a 2 -x {0.0 3.0 -1 ------- null}
r -t 1.196912 -s 0 -d 2 -p tcp -e 1040 -c 2 -i 17 -a 2 -x {0.0 3.0 10 ------- null}
+ -t 1.196912 -s 2 -d 3 -p tcp -e 1040 -c 2 -i 17 -a 2 -x {0.0 3.0 10 ------- null}
- -t 1.196912 -s 2 -d 3 -p tcp -e 1040 -c 2 -i 17 -a 2 -x {0.0 3.0 10 ------- null}
h -t 1.196912 -s 2 -d 3 -p tcp -e 1040 -c 2 -i 17 -a 2 -x {0.0 3.0 -1 ------- null}
r -t 1.197744 -s 0 -d 2 -p tcp -e 1040 -c 2 -i 18 -a 2 -x {0.0 3.0 11 ------- null}
+ -t 1.197744 -s 2 -d 3 -p tcp -e 1040 -c 2 -i 18 -a 2 -x {0.0 3.0 11 ------- null}
- -t 1.197744 -s 2 -d 3 -p tcp -e 1040 -c 2 -i 18 -a 2 -x {0.0 3.0 11 ------- null}
h -t 1.197744 -s 2 -d 3 -p tcp -e 1040 -c 2 -i 18 -a 2 -x {0.0 3.0 -1 ------- null}
r -t 1.198576 -s 0 -d 2 -p tcp -e 1040 -c 2 -i 19 -a 2 -x {0.0 3.0 12 ------- null}
+ -t 1.198576 -s 2 -d 3 -p tcp -e 1040 -c 2 -i 19 -a 2 -x {0.0 3.0 12 ------- null}
- -t 1.198576 -s 2 -d 3 -p tcp -e 1040 -c 2 -i 19 -a 2 -x {0.0 3.0 12 ------- null}
h -t 1.198576 -s 2 -d 3 -p tcp -e 1040 -c 2 -i 19 -a 2 -x {0.0 3.0 -1 ------- null}
r -t 1.199408 -s 0 -d 2 -p tcp -e 1040 -c 2 -i 20 -a 2 -x {0.0 3.0 13 ------- null}
+ -t 1.199408 -s 2 -d 3 -p tcp -e 1040 -c 2 -i 20 -a 2 -x {0.0 3.0 13 ------- null}
- -t 1.199408 -s 2 -d 3 -p tcp -e 1040 -c 2 -i 20 -a 2 -x {0.0 3.0 13 ------- null}
h -t 1.199408 -s 2 -d 3 -p tcp -e 1040 -c 2 -i 20 -a 2 -x {0.0 3.0 -1 ------- null}
r -t 1.20024 -s 0 -d 2 -p tcp -e 1040 -c 2 -i 21 -a 2 -x {0.0 3.0 14 ------- null}
+ -t 1.20024 -s 2 -d 3 -p tcp -e 1040 -c 2 -i 21 -a 2 -x {0.0 3.0 14 ------- null}
- -t 1.20024 -s 2 -d 3 -p tcp -e 1040 -c 2 -i 21 -a 2 -x {0.0 3.0 14 ------- null}
h -t 1.20024 -s 2 -d 3 -p tcp -e 1040 -c 2 -i 21 -a 2 -x {0.0 3.0 -1 ------- null}
r -t 1.215248 -s 2 -d 3 -p tcp -e 1040 -c 2 -i 14 -a 2 -x {0.0 3.0 7 ------- null}
+ -t 1.215248 -s 3 -d 2 -p ack -e 40 -c 2 -i 22 -a 2 -x {3.0 0.0 7 ------- null}
- -t 1.215248 -s 3 -d 2 -p ack -e 40 -c 2 -i 22 -a 2 -x {3.0 0.0 7 ------- null}
h -t 1.215248 -s 3 -d 2 -p ack -e 40 -c 2 -i 22 -a 2 -x {3.0 0.0 -1 ------- null}
r -t 1.21608 -s 2 -d 3 -p tcp -e 1040 -c 2 -i 15 -a 2 -x {0.0 3.0 8 ------- null}
+ -t 1.21608 -s 3 -d 2 -p ack -e 40 -c 2 -i 23 -a 2 -x {3.0 0.0 8 ------- null}
- -t 1.21608 -s 3 -d 2 -p ack -e 40 -c 2 -i 23 -a 2 -x {3.0 0.0 8 ------- null}
h -t 1.21608 -s 3 -d 2 -p ack -e 40 -c 2 -i 23 -a 2 -x {3.0 0.0 -1 ------- null}
r -t 1.216912 -s 2 -d 3 -p tcp -e 1040 -c 2 -i 16 -a 2 -x {0.0 3.0 9 ------- null}
+ -t 1.216912 -s 3 -d 2 -p ack -e 40 -c 2 -i 24 -a 2 -x {3.0 0.0 9 ------- null}
- -t 1.216912 -s 3 -d 2 -p ack -e 40 -c 2 -i 24 -a 2 -x {3.0 0.0 9 ------- null}
h -t 1.216912 -s 3 -d 2 -p ack -e 40 -c 2 -i 24 -a 2 -x {3.0 0.0 -1 ------- null}
r -t 1.217744 -s 2 -d 3 -p tcp -e 1040 -c 2 -i 17 -a 2 -x {0.0 3.0 10 ------- null}
+ -t 1.217744 -s 3 -d 2 -p ack -e 40 -c 2 -i 25 -a 2 -x {3.0 0.0 10 ------- null}
- -t 1.217744 -s 3 -d 2 -p ack -e 40 -c 2 -i 25 -a 2 -x {3.0 0.0 10 ------- null}
h -t 1.217744 -s 3 -d 2 -p ack -e 40 -c 2 -i 25 -a 2 -x {3.0 0.0 -1 ------- null}
r -t 1.218576 -s 2 -d 3 -p tcp -e 1040 -c 2 -i 18 -a 2 -x {0.0 3.0 11 ------- null}
+ -t 1.218576 -s 3 -d 2 -p ack -e 40 -c 2 -i 26 -a 2 -x {3.0 0.0 11 ------- null}
- -t 1.218576 -s 3 -d 2 -p ack -e 40 -c 2 -i 26 -a 2 -x {3.0 0.0 11 ------- null}
h -t 1.218576 -s 3 -d 2 -p ack -e 40 -c 2 -i 26 -a 2 -x {3.0 0.0 -1 ------- null}
r -t 1.219408 -s 2 -d 3 -p tcp -e 1040 -c 2 -i 19 -a 2 -x {0.0 3.0 12 ------- null}
+ -t 1.219408 -s 3 -d 2 -p ack -e 40 -c 2 -i 27 -a 2 -x {3.0 0.0 12 ------- null}
- -t 1.219408 -s 3 -d 2 -p ack -e 40 -c 2 -i 27 -a 2 -x {3.0 0.0 12 ------- null}
h -t 1.219408 -s 3 -d 2 -p ack -e 40 -c 2 -i 27 -a 2 -x {3.0 0.0 -1 ------- null}
r -t 1.22024 -s 2 -d 3 -p tcp -e 1040 -c 2 -i 20 -a 2 -x {0.0 3.0 13 ------- null}
+ -t 1.22024 -s 3 -d 2 -p ack -e 40 -c 2 -i 28 -a 2 -x {3.0 0.0 13 ------- null}
- -t 1.22024 -s 3 -d 2 -p ack -e 40 -c 2 -i 28 -a 2 -x {3.0 0.0 13 ------- null}
h -t 1.22024 -s 3 -d 2 -p ack -e 40 -c 2 -i 28 -a 2 -x {3.0 0.0 -1 ------- null}
r -t 1.221072 -s 2 -d 3 -p tcp -e 1040 -c 2 -i 21 -a 2 -x {0.0 3.0 14 ------- null}
+ -t 1.221072 -s 3 -d 2 -p ack -e 40 -c 2 -i 29 -a 2 -x {3.0 0.0 14 ------- null}
- -t 1.221072 -s 3 -d 2 -p ack -e 40 -c 2 -i 29 -a 2 -x {3.0 0.0 14 ------- null}
h -t 1.221072 -s 3 -d 2 -p ack -e 40 -c 2 -i 29 -a 2 -x {3.0 0.0 -1 ------- null}
r -t 1.23528 -s 3 -d 2 -p ack -e 40 -c 2 -i 22 -a 2 -x {3.0 0.0 7 ------- null}
+ -t 1.23528 -s 2 -d 0 -p ack -e 40 -c 2 -i 22 -a 2 -x {3.0 0.0 7 ------- null}
- -t 1.23528 -s 2 -d 0 -p ack -e 40 -c 2 -i 22 -a 2 -x {3.0 0.0 7 ------- null}
h -t 1.23528 -s 2 -d 0 -p ack -e 40 -c 2 -i 22 -a 2 -x {3.0 0.0 -1 ------- null}
r -t 1.236112 -s 3 -d 2 -p ack -e 40 -c 2 -i 23 -a 2 -x {3.0 0.0 8 ------- null}
+ -t 1.236112 -s 2 -d 0 -p ack -e 40 -c 2 -i 23 -a 2 -x {3.0 0.0 8 ------- null}
- -t 1.236112 -s 2 -d 0 -p ack -e 40 -c 2 -i 23 -a 2 -x {3.0 0.0 8 ------- null}
h -t 1.236112 -s 2 -d 0 -p ack -e 40 -c 2 -i 23 -a 2 -x {3.0 0.0 -1 ------- null}
r -t 1.236944 -s 3 -d 2 -p ack -e 40 -c 2 -i 24 -a 2 -x {3.0 0.0 9 ------- null}
+ -t 1.236944 -s 2 -d 0 -p ack -e 40 -c 2 -i 24 -a 2 -x {3.0 0.0 9 ------- null}
- -t 1.236944 -s 2 -d 0 -p ack -e 40 -c 2 -i 24 -a 2 -x {3.0 0.0 9 ------- null}
h -t 1.236944 -s 2 -d 0 -p ack -e 40 -c 2 -i 24 -a 2 -x {3.0 0.0 -1 ------- null}
r -t 1.237776 -s 3 -d 2 -p ack -e 40 -c 2 -i 25 -a 2 -x {3.0 0.0 10 ------- null}
+ -t 1.237776 -s 2 -d 0 -p ack -e 40 -c 2 -i 25 -a 2 -x {3.0 0.0 10 ------- null}
- -t 1.237776 -s 2 -d 0 -p ack -e 40 -c 2 -i 25 -a 2 -x {3.0 0.0 10 ------- null}
h -t 1.237776 -s 2 -d 0 -p ack -e 40 -c 2 -i 25 -a 2 -x {3.0 0.0 -1 ------- null}
r -t 1.238608 -s 3 -d 2 -p ack -e 40 -c 2 -i 26 -a 2 -x {3.0 0.0 11 ------- null}
+ -t 1.238608 -s 2 -d 0 -p ack -e 40 -c 2 -i 26 -a 2 -x {3.0 0.0 11 ------- null}
- -t 1.238608 -s 2 -d 0 -p ack -e 40 -c 2 -i 26 -a 2 -x {3.0 0.0 11 ------- null}
h -t 1.238608 -s 2 -d 0 -p ack -e 40 -c 2 -i 26 -a 2 -x {3.0 0.0 -1 ------- null}
r -t 1.23944 -s 3 -d 2 -p ack -e 40 -c 2 -i 27 -a 2 -x {3.0 0.0 12 ------- null}
+ -t 1.23944 -s 2 -d 0 -p ack -e 40 -c 2 -i 27 -a 2 -x {3.0 0.0 12 ------- null}
- -t 1.23944 -s 2 -d 0 -p ack -e 40 -c 2 -i 27 -a 2 -x {3.0 0.0 12 ------- null}
h -t 1.23944 -s 2 -d 0 -p ack -e 40 -c 2 -i 27 -a 2 -x {3.0 0.0 -1 ------- null}
r -t 1.240272 -s 3 -d 2 -p ack -e 40 -c 2 -i 28 -a 2 -x {3.0 0.0 13 ------- null}
+ -t 1.240272 -s 2 -d 0 -p ack -e 40 -c 2 -i 28 -a 2 -x {3.0 0.0 13 ------- null}
- -t 1.240272 -s 2 -d 0 -p ack -e 40 -c 2 -i 28 -a 2 -x {3.0 0.0 13 ------- null}
h -t 1.240272 -s 2 -d 0 -p ack -e 40 -c 2 -i 28 -a 2 -x {3.0 0.0 -1 ------- null}
r -t 1.241104 -s 3 -d 2 -p ack -e 40 -c 2 -i 29 -a 2 -x {3.0 0.0 14 ------- null}
+ -t 1.241104 -s 2 -d 0 -p ack -e 40 -c 2 -i 29 -a 2 -x {3.0 0.0 14 ------- null}
- -t 1.241104 -s 2 -d 0 -p ack -e 40 -c 2 -i 29 -a 2 -x {3.0 0.0 14 ------- null}
h -t 1.241104 -s 2 -d 0 -p ack -e 40 -c 2 -i 29 -a 2 -x {3.0 0.0 -1 ------- null}
r -t 1.245312 -s 2 -d 0 -p ack -e 40 -c 2 -i 22 -a 2 -x {3.0 0.0 7 ------- null}
+ -t 1.245312 -s 0 -d 2 -p tcp -e 1040 -c 2 -i 30 -a 2 -x {0.0 3.0 15 ------- null}
- -t 1.245312 -s 0 -d 2 -p tcp -e 1040 -c 2 -i 30 -a 2 -x {0.0 3.0 15 ------- null}
h -t 1.245312 -s 0 -d 2 -p tcp -e 1040 -c 2 -i 30 -a 2 -x {0.0 3.0 -1 ------- null}
+ -t 1.245312 -s 0 -d 2 -p tcp -e 1040 -c 2 -i 31 -a 2 -x {0.0 3.0 16 ------- null}
r -t 1.246144 -s 2 -d 0 -p ack -e 40 -c 2 -i 23 -a 2 -x {3.0 0.0 8 ------- null}
+ -t 1.246144 -s 0 -d 2 -p tcp -e 1040 -c 2 -i 32 -a 2 -x {0.0 3.0 17 ------- null}
+ -t 1.246144 -s 0 -d 2 -p tcp -e 1040 -c 2 -i 33 -a 2 -x {0.0 3.0 18 ------- null}
- -t 1.246144 -s 0 -d 2 -p tcp -e 1040 -c 2 -i 31 -a 2 -x {0.0 3.0 16 ------- null}
h -t 1.246144 -s 0 -d 2 -p tcp -e 1040 -c 2 -i 31 -a 2 -x {0.0 3.0 -1 ------- null}
r -t 1.246976 -s 2 -d 0 -p ack -e 40 -c 2 -i 24 -a 2 -x {3.0 0.0 9 ------- null}
+ -t 1.246976 -s 0 -d 2 -p tcp -e 1040 -c 2 -i 34 -a 2 -x {0.0 3.0 19 ------- null}
+ -t 1.246976 -s 0 -d 2 -p tcp -e 1040 -c 2 -i 35 -a 2 -x {0.0 3.0 20 ------- null}
- -t 1.246976 -s 0 -d 2 -p tcp -e 1040 -c 2 -i 32 -a 2 -x {0.0 3.0 17 ------- null}
h -t 1.246976 -s 0 -d 2 -p tcp -e 1040 -c 2 -i 32 -a 2 -x {0.0 3.0 -1 ------- null}
r -t 1.247808 -s 2 -d 0 -p ack -e 40 -c 2 -i 25 -a 2 -x {3.0 0.0 10 ------- null}
+ -t 1.247808 -s 0 -d 2 -p tcp -e 1040 -c 2 -i 36 -a 2 -x {0.0 3.0 21 ------- null}
+ -t 1.247808 -s 0 -d 2 -p tcp -e 1040 -c 2 -i 37 -a 2 -x {0.0 3.0 22 ------- null}
- -t 1.247808 -s 0 -d 2 -p tcp -e 1040 -c 2 -i 33 -a 2 -x {0.0 3.0 18 ------- null}
h -t 1.247808 -s 0 -d 2 -p tcp -e 1040 -c 2 -i 33 -a 2 -x {0.0 3.0 -1 ------- null}
r -t 1.24864 -s 2 -d 0 -p ack -e 40 -c 2 -i 26 -a 2 -x {3.0 0.0 11 ------- null}
+ -t 1.24864 -s 0 -d 2 -p tcp -e 1040 -c 2 -i 38 -a 2 -x {0.0 3.0 23 ------- null}
+ -t 1.24864 -s 0 -d 2 -p tcp -e 1040 -c 2 -i 39 -a 2 -x {0.0 3.0 24 ------- null}
- -t 1.24864 -s 0 -d 2 -p tcp -e 1040 -c 2 -i 34 -a 2 -x {0.0 3.0 19 ------- null}
h -t 1.24864 -s 0 -d 2 -p tcp -e 1040 -c 2 -i 34 -a 2 -x {0.0 3.0 -1 ------- null}
r -t 1.249472 -s 2 -d 0 -p ack -e 40 -c 2 -i 27 -a 2 -x {3.0 0.0 12 ------- null}
+ -t 1.249472 -s 0 -d 2 -p tcp -e 1040 -c 2 -i 40 -a 2 -x {0.0 3.0 25 ------- null}
+ -t 1.249472 -s 0 -d 2 -p tcp -e 1040 -c 2 -i 41 -a 2 -x {0.0 3.0 26 ------- null}
- -t 1.249472 -s 0 -d 2 -p tcp -e 1040 -c 2 -i 35 -a 2 -x {0.0 3.0 20 ------- null}
h -t 1.249472 -s 0 -d 2 -p tcp -e 1040 -c 2 -i 35 -a 2 -x {0.0 3.0 -1 ------- null}
r -t 1.250304 -s 2 -d 0 -p ack -e 40 -c 2 -i 28 -a 2 -x {3.0 0.0 13 ------- null}
+ -t 1.250304 -s 0 -d 2 -p tcp -e 1040 -c 2 -i 42 -a 2 -x {0.0 3.0 27 ------- null}
+ -t 1.250304 -s 0 -d 2 -p tcp -e 1040 -c 2 -i 43 -a 2 -x {0.0 3.0 28 ------- null}
- -t 1.250304 -s 0 -d 2 -p tcp -e 1040 -c 2 -i 36 -a 2 -x {0.0 3.0 21 ------- null}
h -t 1.250304 -s 0 -d 2 -p tcp -e 1040 -c 2 -i 36 -a 2 -x {0.0 3.0 -1 ------- null}
r -t 1.251136 -s 2 -d 0 -p ack -e 40 -c 2 -i 29 -a 2 -x {3.0 0.0 14 ------- null}
+ -t 1.251136 -s 0 -d 2 -p tcp -e 1040 -c 2 -i 44 -a 2 -x {0.0 3.0 29 ------- null}
+ -t 1.251136 -s 0 -d 2 -p tcp -e 1040 -c 2 -i 45 -a 2 -x {0.0 3.0 30 ------- null}
- -t 1.251136 -s 0 -d 2 -p tcp -e 1040 -c 2 -i 37 -a 2 -x {0.0 3.0 22 ------- null}
h -t 1.251136 -s 0 -d 2 -p tcp -e 1040 -c 2 -i 37 -a 2 -x {0.0 3.0 -1 ------- null}
- -t 1.251968 -s 0 -d 2 -p tcp -e 1040 -c 2 -i 38 -a 2 -x {0.0 3.0 23 ------- null}
h -t 1.251968 -s 0 -d 2 -p tcp -e 1040 -c 2 -i 38 -a 2 -x {0.0 3.0 -1 ------- null}
- -t 1.2528 -s 0 -d 2 -p tcp -e 1040 -c 2 -i 39 -a 2 -x {0.0 3.0 24 ------- null}
h -t 1.2528 -s 0 -d 2 -p tcp -e 1040 -c 2 -i 39 -a 2 -x {0.0 3.0 -1 ------- null}
- -t 1.253632 -s 0 -d 2 -p tcp -e 1040 -c 2 -i 40 -a 2 -x {0.0 3.0 25 ------- null}
h -t 1.253632 -s 0 -d 2 -p tcp -e 1040 -c 2 -i 40 -a 2 -x {0.0 3.0 -1 ------- null}
- -t 1.254464 -s 0 -d 2 -p tcp -e 1040 -c 2 -i 41 -a 2 -x {0.0 3.0 26 ------- null}
h -t 1.254464 -s 0 -d 2 -p tcp -e 1040 -c 2 -i 41 -a 2 -x {0.0 3.0 -1 ------- null}
- -t 1.255296 -s 0 -d 2 -p tcp -e 1040 -c 2 -i 42 -a 2 -x {0.0 3.0 27 ------- null}
h -t 1.255296 -s 0 -d 2 -p tcp -e 1040 -c 2 -i 42 -a 2 -x {0.0 3.0 -1 ------- null}
- -t 1.256128 -s 0 -d 2 -p tcp -e 1040 -c 2 -i 43 -a 2 -x {0.0 3.0 28 ------- null}
h -t 1.256128 -s 0 -d 2 -p tcp -e 1040 -c 2 -i 43 -a 2 -x {0.0 3.0 -1 ------- null}
r -t 1.256144 -s 0 -d 2 -p tcp -e 1040 -c 2 -i 30 -a 2 -x {0.0 3.0 15 ------- null}
+ -t 1.256144 -s 2 -d 3 -p tcp -e 1040 -c 2 -i 30 -a 2 -x {0.0 3.0 15 ------- null}
- -t 1.256144 -s 2 -d 3 -p tcp -e 1040 -c 2 -i 30 -a 2 -x {0.0 3.0 15 ------- null}
h -t 1.256144 -s 2 -d 3 -p tcp -e 1040 -c 2 -i 30 -a 2 -x {0.0 3.0 -1 ------- null}
- -t 1.25696 -s 0 -d 2 -p tcp -e 1040 -c 2 -i 44 -a 2 -x {0.0 3.0 29 ------- null}
h -t 1.25696 -s 0 -d 2 -p tcp -e 1040 -c 2 -i 44 -a 2 -x {0.0 3.0 -1 ------- null}
r -t 1.256976 -s 0 -d 2 -p tcp -e 1040 -c 2 -i 31 -a 2 -x {0.0 3.0 16 ------- null}
+ -t 1.256976 -s 2 -d 3 -p tcp -e 1040 -c 2 -i 31 -a 2 -x {0.0 3.0 16 ------- null}
- -t 1.256976 -s 2 -d 3 -p tcp -e 1040 -c 2 -i 31 -a 2 -x {0.0 3.0 16 ------- null}
h -t 1.256976 -s 2 -d 3 -p tcp -e 1040 -c 2 -i 31 -a 2 -x {0.0 3.0 -1 ------- null}
- -t 1.257792 -s 0 -d 2 -p tcp -e 1040 -c 2 -i 45 -a 2 -x {0.0 3.0 30 ------- null}
h -t 1.257792 -s 0 -d 2 -p tcp -e 1040 -c 2 -i 45 -a 2 -x {0.0 3.0 -1 ------- null}
r -t 1.257808 -s 0 -d 2 -p tcp -e 1040 -c 2 -i 32 -a 2 -x {0.0 3.0 17 ------- null}
+ -t 1.257808 -s 2 -d 3 -p tcp -e 1040 -c 2 -i 32 -a 2 -x {0.0 3.0 17 ------- null}
- -t 1.257808 -s 2 -d 3 -p tcp -e 1040 -c 2 -i 32 -a 2 -x {0.0 3.0 17 ------- null}
h -t 1.257808 -s 2 -d 3 -p tcp -e 1040 -c 2 -i 32 -a 2 -x {0.0 3.0 -1 ------- null}
r -t 1.25864 -s 0 -d 2 -p tcp -e 1040 -c 2 -i 33 -a 2 -x {0.0 3.0 18 ------- null}
+ -t 1.25864 -s 2 -d 3 -p tcp -e 1040 -c 2 -i 33 -a 2 -x {0.0 3.0 18 ------- null}
- -t 1.25864 -s 2 -d 3 -p tcp -e 1040 -c 2 -i 33 -a 2 -x {0.0 3.0 18 ------- null}
h -t 1.25864 -s 2 -d 3 -p tcp -e 1040 -c 2 -i 33 -a 2 -x {0.0 3.0 -1 ------- null}
r -t 1.259472 -s 0 -d 2 -p tcp -e 1040 -c 2 -i 34 -a 2 -x {0.0 3.0 19 ------- null}
+ -t 1.259472 -s 2 -d 3 -p tcp -e 1040 -c 2 -i 34 -a 2 -x {0.0 3.0 19 ------- null}
- -t 1.259472 -s 2 -d 3 -p tcp -e 1040 -c 2 -i 34 -a 2 -x {0.0 3.0 19 ------- null}
h -t 1.259472 -s 2 -d 3 -p tcp -e 1040 -c 2 -i 34 -a 2 -x {0.0 3.0 -1 ------- null}
r -t 1.260304 -s 0 -d 2 -p tcp -e 1040 -c 2 -i 35 -a 2 -x {0.0 3.0 20 ------- null}
+ -t 1.260304 -s 2 -d 3 -p tcp -e 1040 -c 2 -i 35 -a 2 -x {0.0 3.0 20 ------- null}
- -t 1.260304 -s 2 -d 3 -p tcp -e 1040 -c 2 -i 35 -a 2 -x {0.0 3.0 20 ------- null}
h -t 1.260304 -s 2 -d 3 -p tcp -e 1040 -c 2 -i 35 -a 2 -x {0.0 3.0 -1 ------- null}
r -t 1.261136 -s 0 -d 2 -p tcp -e 1040 -c 2 -i 36 -a 2 -x {0.0 3.0 21 ------- null}
+ -t 1.261136 -s 2 -d 3 -p tcp -e 1040 -c 2 -i 36 -a 2 -x {0.0 3.0 21 ------- null}
- -t 1.261136 -s 2 -d 3 -p tcp -e 1040 -c 2 -i 36 -a 2 -x {0.0 3.0 21 ------- null}
h -t 1.261136 -s 2 -d 3 -p tcp -e 1040 -c 2 -i 36 -a 2 -x {0.0 3.0 -1 ------- null}
r -t 1.261968 -s 0 -d 2 -p tcp -e 1040 -c 2 -i 37 -a 2 -x {0.0 3.0 22 ------- null}
+ -t 1.261968 -s 2 -d 3 -p tcp -e 1040 -c 2 -i 37 -a 2 -x {0.0 3.0 22 ------- null}
- -t 1.261968 -s 2 -d 3 -p tcp -e 1040 -c 2 -i 37 -a 2 -x {0.0 3.0 22 ------- null}
h -t 1.261968 -s 2 -d 3 -p tcp -e 1040 -c 2 -i 37 -a 2 -x {0.0 3.0 -1 ------- null}
r -t 1.2628 -s 0 -d 2 -p tcp -e 1040 -c 2 -i 38 -a 2 -x {0.0 3.0 23 ------- null}
+ -t 1.2628 -s 2 -d 3 -p tcp -e 1040 -c 2 -i 38 -a 2 -x {0.0 3.0 23 ------- null}
- -t 1.2628 -s 2 -d 3 -p tcp -e 1040 -c 2 -i 38 -a 2 -x {0.0 3.0 23 ------- null}
h -t 1.2628 -s 2 -d 3 -p tcp -e 1040 -c 2 -i 38 -a 2 -x {0.0 3.0 -1 ------- null}
r -t 1.263632 -s 0 -d 2 -p tcp -e 1040 -c 2 -i 39 -a 2 -x {0.0 3.0 24 ------- null}
+ -t 1.263632 -s 2 -d 3 -p tcp -e 1040 -c 2 -i 39 -a 2 -x {0.0 3.0 24 ------- null}
- -t 1.263632 -s 2 -d 3 -p tcp -e 1040 -c 2 -i 39 -a 2 -x {0.0 3.0 24 ------- null}
h -t 1.263632 -s 2 -d 3 -p tcp -e 1040 -c 2 -i 39 -a 2 -x {0.0 3.0 -1 ------- null}
r -t 1.264464 -s 0 -d 2 -p tcp -e 1040 -c 2 -i 40 -a 2 -x {0.0 3.0 25 ------- null}
+ -t 1.264464 -s 2 -d 3 -p tcp -e 1040 -c 2 -i 40 -a 2 -x {0.0 3.0 25 ------- null}
- -t 1.264464 -s 2 -d 3 -p tcp -e 1040 -c 2 -i 40 -a 2 -x {0.0 3.0 25 ------- null}
h -t 1.264464 -s 2 -d 3 -p tcp -e 1040 -c 2 -i 40 -a 2 -x {0.0 3.0 -1 ------- null}
r -t 1.265296 -s 0 -d 2 -p tcp -e 1040 -c 2 -i 41 -a 2 -x {0.0 3.0 26 ------- null}
+ -t 1.265296 -s 2 -d 3 -p tcp -e 1040 -c 2 -i 41 -a 2 -x {0.0 3.0 26 ------- null}
- -t 1.265296 -s 2 -d 3 -p tcp -e 1040 -c 2 -i 41 -a 2 -x {0.0 3.0 26 ------- null}
h -t 1.265296 -s 2 -d 3 -p tcp -e 1040 -c 2 -i 41 -a 2 -x {0.0 3.0 -1 ------- null}
r -t 1.266128 -s 0 -d 2 -p tcp -e 1040 -c 2 -i 42 -a 2 -x {0.0 3.0 27 ------- null}
+ -t 1.266128 -s 2 -d 3 -p tcp -e 1040 -c 2 -i 42 -a 2 -x {0.0 3.0 27 ------- null}
- -t 1.266128 -s 2 -d 3 -p tcp -e 1040 -c 2 -i 42 -a 2 -x {0.0 3.0 27 ------- null}
h -t 1.266128 -s 2 -d 3 -p tcp -e 1040 -c 2 -i 42 -a 2 -x {0.0 3.0 -1 ------- null}
r -t 1.26696 -s 0 -d 2 -p tcp -e 1040 -c 2 -i 43 -a 2 -x {0.0 3.0 28 ------- null}
+ -t 1.26696 -s 2 -d 3 -p tcp -e 1040 -c 2 -i 43 -a 2 -x {0.0 3.0 28 ------- null}
- -t 1.26696 -s 2 -d 3 -p tcp -e 1040 -c 2 -i 43 -a 2 -x {0.0 3.0 28 ------- null}
h -t 1.26696 -s 2 -d 3 -p tcp -e 1040 -c 2 -i 43 -a 2 -x {0.0 3.0 -1 ------- null}
r -t 1.267792 -s 0 -d 2 -p tcp -e 1040 -c 2 -i 44 -a 2 -x {0.0 3.0 29 ------- null}
+ -t 1.267792 -s 2 -d 3 -p tcp -e 1040 -c 2 -i 44 -a 2 -x {0.0 3.0 29 ------- null}
- -t 1.267792 -s 2 -d 3 -p tcp -e 1040 -c 2 -i 44 -a 2 -x {0.0 3.0 29 ------- null}
h -t 1.267792 -s 2 -d 3 -p tcp -e 1040 -c 2 -i 44 -a 2 -x {0.0 3.0 -1 ------- null}
r -t 1.268624 -s 0 -d 2 -p tcp -e 1040 -c 2 -i 45 -a 2 -x {0.0 3.0 30 ------- null}
+ -t 1.268624 -s 2 -d 3 -p tcp -e 1040 -c 2 -i 45 -a 2 -x {0.0 3.0 30 ------- null}
- -t 1.268624 -s 2 -d 3 -p tcp -e 1040 -c 2 -i 45 -a 2 -x {0.0 3.0 30 ------- null}
h -t 1.268624 -s 2 -d 3 -p tcp -e 1040 -c 2 -i 45 -a 2 -x {0.0 3.0 -1 ------- null}
r -t 1.276976 -s 2 -d 3 -p tcp -e 1040 -c 2 -i 30 -a 2 -x {0.0 3.0 15 ------- null}
+ -t 1.276976 -s 3 -d 2 -p ack -e 40 -c 2 -i 46 -a 2 -x {3.0 0.0 15 ------- null}
- -t 1.276976 -s 3 -d 2 -p ack -e 40 -c 2 -i 46 -a 2 -x {3.0 0.0 15 ------- null}
h -t 1.276976 -s 3 -d 2 -p ack -e 40 -c 2 -i 46 -a 2 -x {3.0 0.0 -1 ------- null}