+ 1 0 2 tcp 40 ------- 2 0.0 3.0 0 0
- 1 0 2 tcp 40 ------- 2 0.0 3.0 0 0
r 1.010032 0 2 tcp 40 ------- 2 0.0 3.0 0 0
+ 1.010032 2 3 tcp 40 ------- 2 0.0 3.0 0 0
- 1.010032 2 3 tcp 40 ------- 2 0.0 3.0 0 0
r 1.030064 2 3 tcp 40 ------- 2 0.0 3.0 0 0
+ 1.030064 3 2 ack 40 ------- 2 3.0 0.0 0 1
- 1.030064 3 2 ack 40 ------- 2 3.0 0.0 0 1
r 1.050096 3 2 ack 40 ------- 2 3.0 0.0 0 1
+ 1.050096 2 0 ack 40 ------- 2 3.0 0.0 0 1
- 1.050096 2 0 ack 40 ------- 2 3.0 0.0 0 1
r 1.060128 2 0 ack 40 ------- 2 3.0 0.0 0 1
+ 1.060128 0 2 tcp 1040 ------- 2 0.0 3.0 1 2
- 1.060128 0 2 tcp 1040 ------- 2 0.0 3.0 1 2
+ 1.060128 0 2 tcp 1040 ------- 2 0.0 3.0 2 3
- 1.06096 0 2 tcp 1040 ------- 2 0.0 3.0 2 3
r 1.07096 0 2 tcp 1040 ------- 2 0.0 3.0 1 2
+ 1.07096 2 3 tcp 1040 ------- 2 0.0 3.0 1 2
- 1.07096 2 3 tcp 1040 ------- 2 0.0 3.0 1 2
r 1.071792 0 2 tcp 1040 ------- 2 0.0 3.0 2 3
+ 1.071792 2 3 tcp 1040 ------- 2 0.0 3.0 2 3
- 1.071792 2 3 tcp 1040 ------- 2 0.0 3.0 2 3
r 1.091792 2 3 tcp 1040 ------- 2 0.0 3.0 1 2
+ 1.091792 3 2 ack 40 ------- 2 3.0 0.0 1 4
- 1.091792 3 2 ack 40 ------- 2 3.0 0.0 1 4
r 1.092624 2 3 tcp 1040 ------- 2 0.0 3.0 2 3
+ 1.092624 3 2 ack 40 ------- 2 3.0 0.0 2 5
- 1.092624 3 2 ack 40 ------- 2 3.0 0.0 2 5
r 1.111824 3 2 ack 40 ------- 2 3.0 0.0 1 4
+ 1.111824 2 0 ack 40 ------- 2 3.0 0.0 1 4
- 1.111824 2 0 ack 40 ------- 2 3.0 0.0 1 4
r 1.112656 3 2 ack 40 ------- 2 3.0 0.0 2 5
+ 1.112656 2 0 ack 40 ------- 2 3.0 0.0 2 5
- 1.112656 2 0 ack 40 ------- 2 3.0 0.0 2 5
r 1.121856 2 0 ack 40 ------- 2 3.0 0.0 1 4
+ 1.121856 0 2 tcp 1040 ------- 2 0.0 3.0 3 6
- 1.121856 0 2 tcp 1040 ------- 2 0.0 3.0 3 6
+ 1.121856 0 2 tcp 1040 ------- 2 0.0 3.0 4 7
r 1.122688 2 0 ack 40 ------- 2 3.0 0.0 2 5
+ 1.122688 0 2 tcp 1040 ------- 2 0.0 3.0 5 8
+ 1.122688 0 2 tcp 1040 ------- 2 0.0 3.0 6 9
- 1.122688 0 2 tcp 1040 ------- 2 0.0 3.0 4 7
- 1.12352 0 2 tcp 1040 ------- 2 0.0 3.0 5 8
- 1.124352 0 2 tcp 1040 ------- 2 0.0 3.0 6 9
r 1.132688 0 2 tcp 1040 ------- 2 0.0 3.0 3 6
+ 1.132688 2 3 tcp 1040 ------- 2 0.0 3.0 3 6
- 1.132688 2 3 tcp 1040 ------- 2 0.0 3.0 3 6
r 1.13352 0 2 tcp 1040 ------- 2 0.0 3.0 4 7
+ 1.13352 2 3 tcp 1040 ------- 2 0.0 3.0 4 7
- 1.13352 2 3 tcp 1040 ------- 2 0.0 3.0 4 7
r 1.134352 0 2 tcp 1040 ------- 2 0.0 3.0 5 8
+ 1.134352 2 3 tcp 1040 ------- 2 0.0 3.0 5 8
- 1.134352 2 3 tcp 1040 ------- 2 0.0 3.0 5 8
r 1.135184 0 2 tcp 1040 ------- 2 0.0 3.0 6 9
+ 1.135184 2 3 tcp 1040 ------- 2 0.0 3.0 6 9
- 1.135184 2 3 tcp 1040 ------- 2 0.0 3.0 6 9
r 1.15352 2 3 tcp 1040 ------- 2 0.0 3.0 3 6
+ 1.15352 3 2 ack 40 ------- 2 3.0 0.0 3 10
- 1.15352 3 2 ack 40 ------- 2 3.0 0.0 3 10
r 1.154352 2 3 tcp 1040 ------- 2 0.0 3.0 4 7
+ 1.154352 3 2 ack 40 ------- 2 3.0 0.0 4 11
- 1.154352 3 2 ack 40 ------- 2 3.0 0.0 4 11
r 1.155184 2 3 tcp 1040 ------- 2 0.0 3.0 5 8
+ 1.155184 3 2 ack 40 ------- 2 3.0 0.0 5 12
- 1.155184 3 2 ack 40 ------- 2 3.0 0.0 5 12
r 1.156016 2 3 tcp 1040 ------- 2 0.0 3.0 6 9
+ 1.156016 3 2 ack 40 ------- 2 3.0 0.0 6 13
- 1.156016 3 2 ack 40 ------- 2 3.0 0.0 6 13
r 1.173552 3 2 ack 40 ------- 2 3.0 0.0 3 10
+ 1.173552 2 0 ack 40 ------- 2 3.0 0.0 3 10
- 1.173552 2 0 ack 40 ------- 2 3.0 0.0 3 10
r 1.174384 3 2 ack 40 ------- 2 3.0 0.0 4 11
+ 1.174384 2 0 ack 40 ------- 2 3.0 0.0 4 11
- 1.174384 2 0 ack 40 ------- 2 3.0 0.0 4 11
r 1.175216 3 2 ack 40 ------- 2 3.0 0.0 5 12
+ 1.175216 2 0 ack 40 ------- 2 3.0 0.0 5 12
- 1.175216 2 0 ack 40 ------- 2 3.0 0.0 5 12
r 1.176048 3 2 ack 40 ------- 2 3.0 0.0 6 13
+ 1.176048 2 0 ack 40 ------- 2 3.0 0.0 6 13
- 1.176048 2 0 ack 40 ------- 2 3.0 0.0 6 13
r 1.183584 2 0 ack 40 ------- 2 3.0 0.0 3 10
+ 1.183584 0 2 tcp 1040 ------- 2 0.0 3.0 7 14
- 1.183584 0 2 tcp 1040 ------- 2 0.0 3.0 7 14
+ 1.183584 0 2 tcp 1040 ------- 2 0.0 3.0 8 15
r 1.184416 2 0 ack 40 ------- 2 3.0 0.0 4 11
+ 1.184416 0 2 tcp 1040 ------- 2 0.0 3.0 9 16
+ 1.184416 0 2 tcp 1040 ------- 2 0.0 3.0 10 17
- 1.184416 0 2 tcp 1040 ------- 2 0.0 3.0 8 15
r 1.185248 2 0 ack 40 ------- 2 3.0 0.0 5 12
+ 1.185248 0 2 tcp 1040 ------- 2 0.0 3.0 11 18
+ 1.185248 0 2 tcp 1040 ------- 2 0.0 3.0 12 19
- 1.185248 0 2 tcp 1040 ------- 2 0.0 3.0 9 16
r 1.18608 2 0 ack 40 ------- 2 3.0 0.0 6 13
+ 1.18608 0 2 tcp 1040 ------- 2 0.0 3.0 13 20
+ 1.18608 0 2 tcp 1040 ------- 2 0.0 3.0 14 21
- 1.18608 0 2 tcp 1040 ------- 2 0.0 3.0 10 17
- 1.186912 0 2 tcp 1040 ------- 2 0.0 3.0 11 18
- 1.187744 0 2 tcp 1040 ------- 2 0.0 3.0 12 19
- 1.188576 0 2 tcp 1040 ------- 2 0.0 3.0 13 20
- 1.189408 0 2 tcp 1040 ------- 2 0.0 3.0 14 21
r 1.194416 0 2 tcp 1040 ------- 2 0.0 3.0 7 14
+ 1.194416 2 3 tcp 1040 ------- 2 0.0 3.0 7 14
- 1.194416 2 3 tcp 1040 ------- 2 0.0 3.0 7 14
r 1.195248 0 2 tcp 1040 ------- 2 0.0 3.0 8 15
+ 1.195248 2 3 tcp 1040 ------- 2 0.0 3.0 8 15
- 1.195248 2 3 tcp 1040 ------- 2 0.0 3.0 8 15
r 1.19608 0 2 tcp 1040 ------- 2 0.0 3.0 9 16
+ 1.19608 2 3 tcp 1040 ------- 2 0.0 3.0 9 16
- 1.19608 2 3 tcp 1040 ------- 2 0.0 3.0 9 16
r 1.196912 0 2 tcp 1040 ------- 2 0.0 3.0 10 17
+ 1.196912 2 3 tcp 1040 ------- 2 0.0 3.0 10 17
- 1.196912 2 3 tcp 1040 ------- 2 0.0 3.0 10 17
r 1.197744 0 2 tcp 1040 ------- 2 0.0 3.0 11 18
+ 1.197744 2 3 tcp 1040 ------- 2 0.0 3.0 11 18
- 1.197744 2 3 tcp 1040 ------- 2 0.0 3.0 11 18
r 1.198576 0 2 tcp 1040 ------- 2 0.0 3.0 12 19
+ 1.198576 2 3 tcp 1040 ------- 2 0.0 3.0 12 19
- 1.198576 2 3 tcp 1040 ------- 2 0.0 3.0 12 19
r 1.199408 0 2 tcp 1040 ------- 2 0.0 3.0 13 20
+ 1.199408 2 3 tcp 1040 ------- 2 0.0 3.0 13 20
- 1.199408 2 3 tcp 1040 ------- 2 0.0 3.0 13 20
r 1.20024 0 2 tcp 1040 ------- 2 0.0 3.0 14 21
+ 1.20024 2 3 tcp 1040 ------- 2 0.0 3.0 14 21
- 1.20024 2 3 tcp 1040 ------- 2 0.0 3.0 14 21
r 1.215248 2 3 tcp 1040 ------- 2 0.0 3.0 7 14
+ 1.215248 3 2 ack 40 ------- 2 3.0 0.0 7 22
- 1.215248 3 2 ack 40 ------- 2 3.0 0.0 7 22
r 1.21608 2 3 tcp 1040 ------- 2 0.0 3.0 8 15
+ 1.21608 3 2 ack 40 ------- 2 3.0 0.0 8 23
- 1.21608 3 2 ack 40 ------- 2 3.0 0.0 8 23
r 1.216912 2 3 tcp 1040 ------- 2 0.0 3.0 9 16
+ 1.216912 3 2 ack 40 ------- 2 3.0 0.0 9 24
- 1.216912 3 2 ack 40 ------- 2 3.0 0.0 9 24
r 1.217744 2 3 tcp 1040 ------- 2 0.0 3.0 10 17
+ 1.217744 3 2 ack 40 ------- 2 3.0 0.0 10 25
- 1.217744 3 2 ack 40 ------- 2 3.0 0.0 10 25
r 1.218576 2 3 tcp 1040 ------- 2 0.0 3.0 11 18
+ 1.218576 3 2 ack 40 ------- 2 3.0 0.0 11 26
- 1.218576 3 2 ack 40 ------- 2 3.0 0.0 11 26
r 1.219408 2 3 tcp 1040 ------- 2 0.0 3.0 12 19
+ 1.219408 3 2 ack 40 ------- 2 3.0 0.0 12 27
- 1.219408 3 2 ack 40 ------- 2 3.0 0.0 12 27
r 1.22024 2 3 tcp 1040 ------- 2 0.0 3.0 13 20
+ 1.22024 3 2 ack 40 ------- 2 3.0 0.0 13 28
- 1.22024 3 2 ack 40 ------- 2 3.0 0.0 13 28
r 1.221072 2 3 tcp 1040 ------- 2 0.0 3.0 14 21
+ 1.221072 3 2 ack 40 ------- 2 3.0 0.0 14 29
- 1.221072 3 2 ack 40 ------- 2 3.0 0.0 14 29
r 1.23528 3 2 ack 40 ------- 2 3.0 0.0 7 22
+ 1.23528 2 0 ack 40 ------- 2 3.0 0.0 7 22
- 1.23528 2 0 ack 40 ------- 2 3.0 0.0 7 22
r 1.236112 3 2 ack 40 ------- 2 3.0 0.0 8 23
+ 1.236112 2 0 ack 40 ------- 2 3.0 0.0 8 23
- 1.236112 2 0 ack 40 ------- 2 3.0 0.0 8 23
r 1.236944 3 2 ack 40 ------- 2 3.0 0.0 9 24
+ 1.236944 2 0 ack 40 ------- 2 3.0 0.0 9 24
- 1.236944 2 0 ack 40 ------- 2 3.0 0.0 9 24
r 1.237776 3 2 ack 40 ------- 2 3.0 0.0 10 25
+ 1.237776 2 0 ack 40 ------- 2 3.0 0.0 10 25
- 1.237776 2 0 ack 40 ------- 2 3.0 0.0 10 25
r 1.238608 3 2 ack 40 ------- 2 3.0 0.0 11 26
+ 1.238608 2 0 ack 40 ------- 2 3.0 0.0 11 26
- 1.238608 2 0 ack 40 ------- 2 3.0 0.0 11 26
r 1.23944 3 2 ack 40 ------- 2 3.0 0.0 12 27
+ 1.23944 2 0 ack 40 ------- 2 3.0 0.0 12 27
- 1.23944 2 0 ack 40 ------- 2 3.0 0.0 12 27
r 1.240272 3 2 ack 40 ------- 2 3.0 0.0 13 28
+ 1.240272 2 0 ack 40 ------- 2 3.0 0.0 13 28
- 1.240272 2 0 ack 40 ------- 2 3.0 0.0 13 28
r 1.241104 3 2 ack 40 ------- 2 3.0 0.0 14 29
+ 1.241104 2 0 ack 40 ------- 2 3.0 0.0 14 29
- 1.241104 2 0 ack 40 ------- 2 3.0 0.0 14 29
r 1.245312 2 0 ack 40 ------- 2 3.0 0.0 7 22
+ 1.245312 0 2 tcp 1040 ------- 2 0.0 3.0 15 30
- 1.245312 0 2 tcp 1040 ------- 2 0.0 3.0 15 30
+ 1.245312 0 2 tcp 1040 ------- 2 0.0 3.0 16 31
r 1.246144 2 0 ack 40 ------- 2 3.0 0.0 8 23
+ 1.246144 0 2 tcp 1040 ------- 2 0.0 3.0 17 32
+ 1.246144 0 2 tcp 1040 ------- 2 0.0 3.0 18 33
- 1.246144 0 2 tcp 1040 ------- 2 0.0 3.0 16 31
r 1.246976 2 0 ack 40 ------- 2 3.0 0.0 9 24
+ 1.246976 0 2 tcp 1040 ------- 2 0.0 3.0 19 34
+ 1.246976 0 2 tcp 1040 ------- 2 0.0 3.0 20 35
- 1.246976 0 2 tcp 1040 ------- 2 0.0 3.0 17 32
r 1.247808 2 0 ack 40 ------- 2 3.0 0.0 10 25
+ 1.247808 0 2 tcp 1040 ------- 2 0.0 3.0 21 36
+ 1.247808 0 2 tcp 1040 ------- 2 0.0 3.0 22 37
- 1.247808 0 2 tcp 1040 ------- 2 0.0 3.0 18 33
r 1.24864 2 0 ack 40 ------- 2 3.0 0.0 11 26
+ 1.24864 0 2 tcp 1040 ------- 2 0.0 3.0 23 38
+ 1.24864 0 2 tcp 1040 ------- 2 0.0 3.0 24 39
- 1.24864 0 2 tcp 1040 ------- 2 0.0 3.0 19 34
r 1.249472 2 0 ack 40 ------- 2 3.0 0.0 12 27
+ 1.249472 0 2 tcp 1040 ------- 2 0.0 3.0 25 40
+ 1.249472 0 2 tcp 1040 ------- 2 0.0 3.0 26 41
- 1.249472 0 2 tcp 1040 ------- 2 0.0 3.0 20 35
r 1.250304 2 0 ack 40 ------- 2 3.0 0.0 13 28
+ 1.250304 0 2 tcp 1040 ------- 2 0.0 3.0 27 42
+ 1.250304 0 2 tcp 1040 ------- 2 0.0 3.0 28 43
- 1.250304 0 2 tcp 1040 ------- 2 0.0 3.0 21 36
r 1.251136 2 0 ack 40 ------- 2 3.0 0.0 14 29
+ 1.251136 0 2 tcp 1040 ------- 2 0.0 3.0 29 44
+ 1.251136 0 2 tcp 1040 ------- 2 0.0 3.0 30 45
- 1.251136 0 2 tcp 1040 ------- 2 0.0 3.0 22 37
- 1.251968 0 2 tcp 1040 ------- 2 0.0 3.0 23 38
- 1.2528 0 2 tcp 1040 ------- 2 0.0 3.0 24 39
- 1.253632 0 2 tcp 1040 ------- 2 0.0 3.0 25 40
- 1.254464 0 2 tcp 1040 ------- 2 0.0 3.0 26 41
- 1.255296 0 2 tcp 1040 ------- 2 0.0 3.0 27 42
- 1.256128 0 2 tcp 1040 ------- 2 0.0 3.0 28 43
r 1.256144 0 2 tcp 1040 ------- 2 0.0 3.0 15 30
+ 1.256144 2 3 tcp 1040 ------- 2 0.0 3.0 15 30
- 1.256144 2 3 tcp 1040 ------- 2 0.0 3.0 15 30
- 1.25696 0 2 tcp 1040 ------- 2 0.0 3.0 29 44
r 1.256976 0 2 tcp 1040 ------- 2 0.0 3.0 16 31
+ 1.256976 2 3 tcp 1040 ------- 2 0.0 3.0 16 31
- 1.256976 2 3 tcp 1040 ------- 2 0.0 3.0 16 31
- 1.257792 0 2 tcp 1040 ------- 2 0.0 3.0 30 45
r 1.257808 0 2 tcp 1040 ------- 2 0.0 3.0 17 32
+ 1.257808 2 3 tcp 1040 ------- 2 0.0 3.0 17 32
- 1.257808 2 3 tcp 1040 ------- 2 0.0 3.0 17 32
r 1.25864 0 2 tcp 1040 ------- 2 0.0 3.0 18 33
+ 1.25864 2 3 tcp 1040 ------- 2 0.0 3.0 18 33
- 1.25864 2 3 tcp 1040 ------- 2 0.0 3.0 18 33
r 1.259472 0 2 tcp 1040 ------- 2 0.0 3.0 19 34
+ 1.259472 2 3 tcp 1040 ------- 2 0.0 3.0 19 34
- 1.259472 2 3 tcp 1040 ------- 2 0.0 3.0 19 34
r 1.260304 0 2 tcp 1040 ------- 2 0.0 3.0 20 35
+ 1.260304 2 3 tcp 1040 ------- 2 0.0 3.0 20 35
- 1.260304 2 3 tcp 1040 ------- 2 0.0 3.0 20 35
r 1.261136 0 2 tcp 1040 ------- 2 0.0 3.0 21 36
+ 1.261136 2 3 tcp 1040 ------- 2 0.0 3.0 21 36
- 1.261136 2 3 tcp 1040 ------- 2 0.0 3.0 21 36
r 1.261968 0 2 tcp 1040 ------- 2 0.0 3.0 22 37
+ 1.261968 2 3 tcp 1040 ------- 2 0.0 3.0 22 37
- 1.261968 2 3 tcp 1040 ------- 2 0.0 3.0 22 37
r 1.2628 0 2 tcp 1040 ------- 2 0.0 3.0 23 38
+ 1.2628 2 3 tcp 1040 ------- 2 0.0 3.0 23 38
- 1.2628 2 3 tcp 1040 ------- 2 0.0 3.0 23 38
r 1.263632 0 2 tcp 1040 ------- 2 0.0 3.0 24 39
+ 1.263632 2 3 tcp 1040 ------- 2 0.0 3.0 24 39
- 1.263632 2 3 tcp 1040 ------- 2 0.0 3.0 24 39
r 1.264464 0 2 tcp 1040 ------- 2 0.0 3.0 25 40
+ 1.264464 2 3 tcp 1040 ------- 2 0.0 3.0 25 40
- 1.264464 2 3 tcp 1040 ------- 2 0.0 3.0 25 40
r 1.265296 0 2 tcp 1040 ------- 2 0.0 3.0 26 41
+ 1.265296 2 3 tcp 1040 ------- 2 0.0 3.0 26 41
- 1.265296 2 3 tcp 1040 ------- 2 0.0 3.0 26 41
r 1.266128 0 2 tcp 1040 ------- 2 0.0 3.0 27 42
+ 1.266128 2 3 tcp 1040 ------- 2 0.0 3.0 27 42
- 1.266128 2 3 tcp 1040 ------- 2 0.0 3.0 27 42
r 1.26696 0 2 tcp 1040 ------- 2 0.0 3.0 28 43
+ 1.26696 2 3 tcp 1040 ------- 2 0.0 3.0 28 43
- 1.26696 2 3 tcp 1040 ------- 2 0.0 3.0 28 43
r 1.267792 0 2 tcp 1040 ------- 2 0.0 3.0 29 44
+ 1.267792 2 3 tcp 1040 ------- 2 0.0 3.0 29 44
- 1.267792 2 3 tcp 1040 ------- 2 0.0 3.0 29 44
r 1.268624 0 2 tcp 1040 ------- 2 0.0 3.0 30 45
+ 1.268624 2 3 tcp 1040 ------- 2 0.0 3.0 30 45
- 1.268624 2 3 tcp 1040 ------- 2 0.0 3.0 30 45
r 1.276976 2 3 tcp 1040 ------- 2 0.0 3.0 15 30
+ 1.276976 3 2 ack 40 ------- 2 3.0 0.0 15 46
- 1.276976 3 2 ack 40 ------- 2 3.0 0.0 15 46
r 1.277808 2 3 tcp 1040 ------- 2 0.0 3.0 16 31
+ 1.277808 3 2 ack 40 ------- 2 3.0 0.0 16 47
- 1.277808 3 2 ack 40 ------- 2 3.0 0.0 16 47
r 1.27864 2 3 tcp 1040 ------- 2 0.0 3.0 17 32
+ 1.27864 3 2 ack 40 ------- 2 3.0 0.0 17 48
- 1.27864 3 2 ack 40 ------- 2 3.0 0.0 17 48
r 1.279472 2 3 tcp 1040 ------- 2 0.0 3.0 18 33
+ 1.279472 3 2 ack 40 ------- 2 3.0 0.0 18 49
- 1.279472 3 2 ack 40 ------- 2 3.0 0.0 18 49
r 1.280304 2 3 tcp 1040 ------- 2 0.0 3.0 19 34
+ 1.280304 3 2 ack 40 ------- 2 3.0 0.0 19 50
- 1.280304 3 2 ack 40 ------- 2 3.0 0.0 19 50
r 1.281136 2 3 tcp 1040 ------- 2 0.0 3.0 20 35
+ 1.281136 3 2 ack 40 ------- 2 3.0 0.0 20 51
- 1.281136 3 2 ack 40 ------- 2 3.0 0.0 20 51
r 1.281968 2 3 tcp 1040 ------- 2 0.0 3.0 21 36
+ 1.281968 3 2 ack 40 ------- 2 3.0 0.0 21 52
- 1.281968 3 2 ack 40 ------- 2 3.0 0.0 21 52
r 1.2828 2 3 tcp 1040 ------- 2 0.0 3.0 22 37
+ 1.2828 3 2 ack 40 ------- 2 3.0 0.0 22 53
- 1.2828 3 2 ack 40 ------- 2 3.0 0.0 22 53
r 1.283632 2 3 tcp 1040 ------- 2 0.0 3.0 23 38
+ 1.283632 3 2 ack 40 ------- 2 3.0 0.0 23 54
- 1.283632 3 2 ack 40 ------- 2 3.0 0.0 23 54
r 1.284464 2 3 tcp 1040 ------- 2 0.0 3.0 24 39
+ 1.284464 3 2 ack 40 ------- 2 3.0 0.0 24 55
- 1.284464 3 2 ack 40 ------- 2 3.0 0.0 24 55
r 1.285296 2 3 tcp 1040 ------- 2 0.0 3.0 25 40
+ 1.285296 3 2 ack 40 ------- 2 3.0 0.0 25 56
- 1.285296 3 2 ack 40 ------- 2 3.0 0.0 25 56
r 1.286128 2 3 tcp 1040 ------- 2 0.0 3.0 26 41
+ 1.286128 3 2 ack 40 ------- 2 3.0 0.0 26 57
- 1.286128 3 2 ack 40 ------- 2 3.0 0.0 26 57
r 1.28696 2 3 tcp 1040 ------- 2 0.0 3.0 27 42
+ 1.28696 3 2 ack 40 ------- 2 3.0 0.0 27 58
- 1.28696 3 2 ack 40 ------- 2 3.0 0.0 27 58
r 1.287792 2 3 tcp 1040 ------- 2 0.0 3.0 28 43
+ 1.287792 3 2 ack 40 ------- 2 3.0 0.0 28 59
- 1.287792 3 2 ack 40 ------- 2 3.0 0.0 28 59
r 1.288624 2 3 tcp 1040 ------- 2 0.0 3.0 29 44
+ 1.288624 3 2 ack 40 ------- 2 3.0 0.0 29 60
- 1.288624 3 2 ack 40 ------- 2 3.0 0.0 29 60
r 1.289456 2 3 tcp 1040 ------- 2 0.0 3.0 30 45
+ 1.289456 3 2 ack 40 ------- 2 3.0 0.0 30 61
- 1.289456 3 2 ack 40 ------- 2 3.0 0.0 30 61
r 1.297008 3 2 ack 40 ------- 2 3.0 0.0 15 46
+ 1.297008 2 0 ack 40 ------- 2 3.0 0.0 15 46
- 1.297008 2 0 ack 40 ------- 2 3.0 0.0 15 46
r 1.29784 3 2 ack 40 ------- 2 3.0 0.0 16 47
+ 1.29784 2 0 ack 40 ------- 2 3.0 0.0 16 47
- 1.29784 2 0 ack 40 ------- 2 3.0 0.0 16 47
r 1.298672 3 2 ack 40 ------- 2 3.0 0.0 17 48
+ 1.298672 2 0 ack 40 ------- 2 3.0 0.0 17 48
- 1.298672 2 0 ack 40 ------- 2 3.0 0.0 17 48
r 1.299504 3 2 ack 40 ------- 2 3.0 0.0 18 49
+ 1.299504 2 0 ack 40 ------- 2 3.0 0.0 18 49
- 1.299504 2 0 ack 40 ------- 2 3.0 0.0 18 49
r 1.300336 3 2 ack 40 ------- 2 3.0 0.0 19 50
+ 1.300336 2 0 ack 40 ------- 2 3.0 0.0 19 50
- 1.300336 2 0 ack 40 ------- 2 3.0 0.0 19 50
r 1.301168 3 2 ack 40 ------- 2 3.0 0.0 20 51
+ 1.301168 2 0 ack 40 ------- 2 3.0 0.0 20 51
- 1.301168 2 0 ack 40 ------- 2 3.0 0.0 20 51
r 1.302 3 2 ack 40 ------- 2 3.0 0.0 21 52
+ 1.302 2 0 ack 40 ------- 2 3.0 0.0 21 52
- 1.302 2 0 ack 40 ------- 2 3.0 0.0 21 52
r 1.302832 3 2 ack 40 ------- 2 3.0 0.0 22 53
+ 1.302832 2 0 ack 40 ------- 2 3.0 0.0 22 53
- 1.302832 2 0 ack 40 ------- 2 3.0 0.0 22 53
r 1.303664 3 2 ack 40 ------- 2 3.0 0.0 23 54
+ 1.303664 2 0 ack 40 ------- 2 3.0 0.0 23 54
- 1.303664 2 0 ack 40 ------- 2 3.0 0.0 23 54
r 1.304496 3 2 ack 40 ------- 2 3.0 0.0 24 55
+ 1.304496 2 0 ack 40 ------- 2 3.0 0.0 24 55
- 1.304496 2 0 ack 40 ------- 2 3.0 0.0 24 55
r 1.305328 3 2 ack 40 ------- 2 3.0 0.0 25 56
+ 1.305328 2 0 ack 40 ------- 2 3.0 0.0 25 56
- 1.305328 2 0 ack 40 ------- 2 3.0 0.0 25 56
r 1.30616 3 2 ack 40 ------- 2 3.0 0.0 26 57
+ 1.30616 2 0 ack 40 ------- 2 3.0 0.0 26 57
- 1.30616 2 0 ack 40 ------- 2 3.0 0.0 26 57
r 1.306992 3 2 ack 40 ------- 2 3.0 0.0 27 58
+ 1.306992 2 0 ack 40 ------- 2 3.0 0.0 27 58
- 1.306992 2 0 ack 40 ------- 2 3.0 0.0 27 58
r 1.30704 2 0 ack 40 ------- 2 3.0 0.0 15 46
+ 1.30704 0 2 tcp 1040 ------- 2 0.0 3.0 31 62
- 1.30704 0 2 tcp 1040 ------- 2 0.0 3.0 31 62
+ 1.30704 0 2 tcp 1040 ------- 2 0.0 3.0 32 63
r 1.307824 3 2 ack 40 ------- 2 3.0 0.0 28 59
+ 1.307824 2 0 ack 40 ------- 2 3.0 0.0 28 59
- 1.307824 2 0 ack 40 ------- 2 3.0 0.0 28 59
r 1.307872 2 0 ack 40 ------- 2 3.0 0.0 16 47
+ 1.307872 0 2 tcp 1040 ------- 2 0.0 3.0 33 64
+ 1.307872 0 2 tcp 1040 ------- 2 0.0 3.0 34 65
- 1.307872 0 2 tcp 1040 ------- 2 0.0 3.0 32 63
r 1.308656 3 2 ack 40 ------- 2 3.0 0.0 29 60
+ 1.308656 2 0 ack 40 ------- 2 3.0 0.0 29 60
- 1.308656 2 0 ack 40 ------- 2 3.0 0.0 29 60
r 1.308704 2 0 ack 40 ------- 2 3.0 0.0 17 48
+ 1.308704 0 2 tcp 1040 ------- 2 0.0 3.0 35 66
+ 1.308704 0 2 tcp 1040 ------- 2 0.0 3.0 36 67
- 1.308704 0 2 tcp 1040 ------- 2 0.0 3.0 33 64
r 1.309488 3 2 ack 40 ------- 2 3.0 0.0 30 61
+ 1.309488 2 0 ack 40 ------- 2 3.0 0.0 30 61
- 1.309488 2 0 ack 40 ------- 2 3.0 0.0 30 61
r 1.309536 2 0 ack 40 ------- 2 3.0 0.0 18 49
+ 1.309536 0 2 tcp 1040 ------- 2 0.0 3.0 37 68
+ 1.309536 0 2 tcp 1040 ------- 2 0.0 3.0 38 69
- 1.309536 0 2 tcp 1040 ------- 2 0.0 3.0 34 65
r 1.310368 2 0 ack 40 ------- 2 3.0 0.0 19 50
+ 1.310368 0 2 tcp 1040 ------- 2 0.0 3.0 39 70
- 1.310368 0 2 tcp 1040 ------- 2 0.0 3.0 35 66
r 1.3112 2 0 ack 40 ------- 2 3.0 0.0 20 51
+ 1.3112 0 2 tcp 1040 ------- 2 0.0 3.0 40 71
- 1.3112 0 2 tcp 1040 ------- 2 0.0 3.0 36 67
r 1.312032 2 0 ack 40 ------- 2 3.0 0.0 21 52
+ 1.312032 0 2 tcp 1040 ------- 2 0.0 3.0 41 72
- 1.312032 0 2 tcp 1040 ------- 2 0.0 3.0 37 68
r 1.312864 2 0 ack 40 ------- 2 3.0 0.0 22 53
+ 1.312864 0 2 tcp 1040 ------- 2 0.0 3.0 42 73
- 1.312864 0 2 tcp 1040 ------- 2 0.0 3.0 38 69
r 1.313696 2 0 ack 40 ------- 2 3.0 0.0 23 54
+ 1.313696 0 2 tcp 1040 ------- 2 0.0 3.0 43 74
- 1.313696 0 2 tcp 1040 ------- 2 0.0 3.0 39 70
r 1.314528 2 0 ack 40 ------- 2 3.0 0.0 24 55
+ 1.314528 0 2 tcp 1040 ------- 2 0.0 3.0 44 75
- 1.314528 0 2 tcp 1040 ------- 2 0.0 3.0 40 71
r 1.31536 2 0 ack 40 ------- 2 3.0 0.0 25 56
+ 1.31536 0 2 tcp 1040 ------- 2 0.0 3.0 45 76
- 1.31536 0 2 tcp 1040 ------- 2 0.0 3.0 41 72
r 1.316192 2 0 ack 40 ------- 2 3.0 0.0 26 57
+ 1.316192 0 2 tcp 1040 ------- 2 0.0 3.0 46 77
- 1.316192 0 2 tcp 1040 ------- 2 0.0 3.0 42 73
r 1.317024 2 0 ack 40 ------- 2 3.0 0.0 27 58
+ 1.317024 0 2 tcp 1040 ------- 2 0.0 3.0 47 78
- 1.317024 0 2 tcp 1040 ------- 2 0.0 3.0 43 74
r 1.317856 2 0 ack 40 ------- 2 3.0 0.0 28 59
+ 1.317856 0 2 tcp 1040 ------- 2 0.0 3.0 48 79
- 1.317856 0 2 tcp 1040 ------- 2 0.0 3.0 44 75
r 1.317872 0 2 tcp 1040 ------- 2 0.0 3.0 31 62
+ 1.317872 2 3 tcp 1040 ------- 2 0.0 3.0 31 62
- 1.317872 2 3 tcp 1040 ------- 2 0.0 3.0 31 62
r 1.318688 2 0 ack 40 ------- 2 3.0 0.0 29 60
+ 1.318688 0 2 tcp 1040 ------- 2 0.0 3.0 49 80
- 1.318688 0 2 tcp 1040 ------- 2 0.0 3.0 45 76
r 1.318704 0 2 tcp 1040 ------- 2 0.0 3.0 32 63
+ 1.318704 2 3 tcp 1040 ------- 2 0.0 3.0 32 63
- 1.318704 2 3 tcp 1040 ------- 2 0.0 3.0 32 63
r 1.31952 2 0 ack 40 ------- 2 3.0 0.0 30 61
+ 1.31952 0 2 tcp 1040 ------- 2 0.0 3.0 50 81
- 1.31952 0 2 tcp 1040 ------- 2 0.0 3.0 46 77
r 1.319536 0 2 tcp 1040 ------- 2 0.0 3.0 33 64
+ 1.319536 2 3 tcp 1040 ------- 2 0.0 3.0 33 64
- 1.319536 2 3 tcp 1040 ------- 2 0.0 3.0 33 64
- 1.320352 0 2 tcp 1040 ------- 2 0.0 3.0 47 78
r 1.320368 0 2 tcp 1040 ------- 2 0.0 3.0 34 65
+ 1.320368 2 3 tcp 1040 ------- 2 0.0 3.0 34 65
- 1.320368 2 3 tcp 1040 ------- 2 0.0 3.0 34 65
- 1.321184 0 2 tcp 1040 ------- 2 0.0 3.0 48 79
r 1.3212 0 2 tcp 1040 ------- 2 0.0 3.0 35 66
+ 1.3212 2 3 tcp 1040 ------- 2 0.0 3.0 35 66
- 1.3212 2 3 tcp 1040 ------- 2 0.0 3.0 35 66
- 1.322016 0 2 tcp 1040 ------- 2 0.0 3.0 49 80
r 1.322032 0 2 tcp 1040 ------- 2 0.0 3.0 36 67
+ 1.322032 2 3 tcp 1040 ------- 2 0.0 3.0 36 67
- 1.322032 2 3 tcp 1040 ------- 2 0.0 3.0 36 67
- 1.322848 0 2 tcp 1040 ------- 2 0.0 3.0 50 81
r 1.322864 0 2 tcp 1040 ------- 2 0.0 3.0 37 68
+ 1.322864 2 3 tcp 1040 ------- 2 0.0 3.0 37 68
- 1.322864 2 3 tcp 1040 ------- 2 0.0 3.0 37 68
r 1.323696 0 2 tcp 1040 ------- 2 0.0 3.0 38 69
+ 1.323696 2 3 tcp 1040 ------- 2 0.0 3.0 38 69
- 1.323696 2 3 tcp 1040 ------- 2 0.0 3.0 38 69
r 1.324528 0 2 tcp 1040 ------- 2 0.0 3.0 39 70
+ 1.324528 2 3 tcp 1040 ------- 2 0.0 3.0 39 70
- 1.324528 2 3 tcp 1040 ------- 2 0.0 3.0 39 70
r 1.32536 0 2 tcp 1040 ------- 2 0.0 3.0 40 71
+ 1.32536 2 3 tcp 1040 ------- 2 0.0 3.0 40 71
- 1.32536 2 3 tcp 1040 ------- 2 0.0 3.0 40 71
r 1.326192 0 2 tcp 1040 ------- 2 0.0 3.0 41 72
+ 1.326192 2 3 tcp 1040 ------- 2 0.0 3.0 41 72
- 1.326192 2 3 tcp 1040 ------- 2 0.0 3.0 41 72
r 1.327024 0 2 tcp 1040 ------- 2 0.0 3.0 42 73
+ 1.327024 2 3 tcp 1040 ------- 2 0.0 3.0 42 73
- 1.327024 2 3 tcp 1040 ------- 2 0.0 3.0 42 73
r 1.327856 0 2 tcp 1040 ------- 2 0.0 3.0 43 74
+ 1.327856 2 3 tcp 1040 ------- 2 0.0 3.0 43 74
- 1.327856 2 3 tcp 1040 ------- 2 0.0 3.0 43 74
r 1.328688 0 2 tcp 1040 ------- 2 0.0 3.0 44 75
+ 1.328688 2 3 tcp 1040 ------- 2 0.0 3.0 44 75
- 1.328688 2 3 tcp 1040 ------- 2 0.0 3.0 44 75
r 1.32952 0 2 tcp 1040 ------- 2 0.0 3.0 45 76
+ 1.32952 2 3 tcp 1040 ------- 2 0.0 3.0 45 76
- 1.32952 2 3 tcp 1040 ------- 2 0.0 3.0 45 76
r 1.330352 0 2 tcp 1040 ------- 2 0.0 3.0 46 77
+ 1.330352 2 3 tcp 1040 ------- 2 0.0 3.0 46 77
- 1.330352 2 3 tcp 1040 ------- 2 0.0 3.0 46 77
r 1.331184 0 2 tcp 1040 ------- 2 0.0 3.0 47 78
+ 1.331184 2 3 tcp 1040 ------- 2 0.0 3.0 47 78
- 1.331184 2 3 tcp 1040 ------- 2 0.0 3.0 47 78
r 1.332016 0 2 tcp 1040 ------- 2 0.0 3.0 48 79
+ 1.332016 2 3 tcp 1040 ------- 2 0.0 3.0 48 79
- 1.332016 2 3 tcp 1040 ------- 2 0.0 3.0 48 79
r 1.332848 0 2 tcp 1040 ------- 2 0.0 3.0 49 80
+ 1.332848 2 3 tcp 1040 ------- 2 0.0 3.0 49 80
- 1.332848 2 3 tcp 1040 ------- 2 0.0 3.0 49 80
r 1.33368 0 2 tcp 1040 ------- 2 0.0 3.0 50 81
+ 1.33368 2 3 tcp 1040 ------- 2 0.0 3.0 50 81
- 1.33368 2 3 tcp 1040 ------- 2 0.0 3.0 50 81
r 1.338704 2 3 tcp 1040 ------- 2 0.0 3.0 31 62
+ 1.338704 3 2 ack 40 ------- 2 3.0 0.0 31 82
- 1.338704 3 2 ack 40 ------- 2 3.0 0.0 31 82
r 1.339536 2 3 tcp 1040 ------- 2 0.0 3.0 32 63
+ 1.339536 3 2 ack 40 ------- 2 3.0 0.0 32 83
- 1.339536 3 2 ack 40 ------- 2 3.0 0.0 32 83
r 1.340368 2 3 tcp 1040 ------- 2 0.0 3.0 33 64
+ 1.340368 3 2 ack 40 ------- 2 3.0 0.0 33 84
- 1.340368 3 2 ack 40 ------- 2 3.0 0.0 33 84
r 1.3412 2 3 tcp 1040 ------- 2 0.0 3.0 34 65
+ 1.3412 3 2 ack 40 ------- 2 3.0 0.0 34 85
- 1.3412 3 2 ack 40 ------- 2 3.0 0.0 34 85
r 1.342032 2 3 tcp 1040 ------- 2 0.0 3.0 35 66
+ 1.342032 3 2 ack 40 ------- 2 3.0 0.0 35 86
- 1.342032 3 2 ack 40 ------- 2 3.0 0.0 35 86
r 1.342864 2 3 tcp 1040 ------- 2 0.0 3.0 36 67
+ 1.342864 3 2 ack 40 ------- 2 3.0 0.0 36 87
- 1.342864 3 2 ack 40 ------- 2 3.0 0.0 36 87
r 1.343696 2 3 tcp 1040 ------- 2 0.0 3.0 37 68
+ 1.343696 3 2 ack 40 ------- 2 3.0 0.0 37 88
- 1.343696 3 2 ack 40 ------- 2 3.0 0.0 37 88
r 1.344528 2 3 tcp 1040 ------- 2 0.0 3.0 38 69
+ 1.344528 3 2 ack 40 ------- 2 3.0 0.0 38 89
- 1.344528 3 2 ack 40 ------- 2 3.0 0.0 38 89
r 1.34536 2 3 tcp 1040 ------- 2 0.0 3.0 39 70
+ 1.34536 3 2 ack 40 ------- 2 3.0 0.0 39 90
- 1.34536 3 2 ack 40 ------- 2 3.0 0.0 39 90
r 1.346192 2 3 tcp 1040 ------- 2 0.0 3.0 40 71
+ 1.346192 3 2 ack 40 ------- 2 3.0 0.0 40 91
- 1.346192 3 2 ack 40 ------- 2 3.0 0.0 40 91
r 1.347024 2 3 tcp 1040 ------- 2 0.0 3.0 41 72
+ 1.347024 3 2 ack 40 ------- 2 3.0 0.0 41 92
- 1.347024 3 2 ack 40 ------- 2 3.0 0.0 41 92
r 1.347856 2 3 tcp 1040 ------- 2 0.0 3.0 42 73
+ 1.347856 3 2 ack 40 ------- 2 3.0 0.0 42 93
- 1.347856 3 2 ack 40 ------- 2 3.0 0.0 42 93
r 1.348688 2 3 tcp 1040 ------- 2 0.0 3.0 43 74
+ 1.348688 3 2 ack 40 ------- 2 3.0 0.0 43 94
- 1.348688 3 2 ack 40 ------- 2 3.0 0.0 43 94
r 1.34952 2 3 tcp 1040 ------- 2 0.0 3.0 44 75
+ 1.34952 3 2 ack 40 ------- 2 3.0 0.0 44 95
- 1.34952 3 2 ack 40 ------- 2 3.0 0.0 44 95
r 1.350352 2 3 tcp 1040 ------- 2 0.0 3.0 45 76
+ 1.350352 3 2 ack 40 ------- 2 3.0 0.0 45 96
- 1.350352 3 2 ack 40 ------- 2 3.0 0.0 45 96
r 1.351184 2 3 tcp 1040 ------- 2 0.0 3.0 46 77
+ 1.351184 3 2 ack 40 ------- 2 3.0 0.0 46 97
- 1.351184 3 2 ack 40 ------- 2 3.0 0.0 46 97
r 1.352016 2 3 tcp 1040 ------- 2 0.0 3.0 47 78
+ 1.352016 3 2 ack 40 ------- 2 3.0 0.0 47 98
- 1.352016 3 2 ack 40 ------- 2 3.0 0.0 47 98
r 1.352848 2 3 tcp 1040 ------- 2 0.0 3.0 48 79
+ 1.352848 3 2 ack 40 ------- 2 3.0 0.0 48 99
- 1.352848 3 2 ack 40 ------- 2 3.0 0.0 48 99
r 1.35368 2 3 tcp 1040 ------- 2 0.0 3.0 49 80
+ 1.35368 3 2 ack 40 ------- 2 3.0 0.0 49 100
- 1.35368 3 2 ack 40 ------- 2 3.0 0.0 49 100
r 1.354512 2 3 tcp 1040 ------- 2 0.0 3.0 50 81
+ 1.354512 3 2 ack 40 ------- 2 3.0 0.0 50 101
- 1.354512 3 2 ack 40 ------- 2 3.0 0.0 50 101
r 1.358736 3 2 ack 40 ------- 2 3.0 0.0 31 82
+ 1.358736 2 0 ack 40 ------- 2 3.0 0.0 31 82
- 1.358736 2 0 ack 40 ------- 2 3.0 0.0 31 82
r 1.359568 3 2 ack 40 ------- 2 3.0 0.0 32 83
+ 1.359568 2 0 ack 40 ------- 2 3.0 0.0 32 83
- 1.359568 2 0 ack 40 ------- 2 3.0 0.0 32 83
r 1.3604 3 2 ack 40 ------- 2 3.0 0.0 33 84
+ 1.3604 2 0 ack 40 ------- 2 3.0 0.0 33 84
- 1.3604 2 0 ack 40 ------- 2 3.0 0.0 33 84
r 1.361232 3 2 ack 40 ------- 2 3.0 0.0 34 85
+ 1.361232 2 0 ack 40 ------- 2 3.0 0.0 34 85
- 1.361232 2 0 ack 40 ------- 2 3.0 0.0 34 85
r 1.362064 3 2 ack 40 ------- 2 3.0 0.0 35 86
+ 1.362064 2 0 ack 40 ------- 2 3.0 0.0 35 86
- 1.362064 2 0 ack 40 ------- 2 3.0 0.0 35 86
r 1.362896 3 2 ack 40 ------- 2 3.0 0.0 36 87
+ 1.362896 2 0 ack 40 ------- 2 3.0 0.0 36 87
- 1.362896 2 0 ack 40 ------- 2 3.0 0.0 36 87
r 1.363728 3 2 ack 40 ------- 2 3.0 0.0 37 88
+ 1.363728 2 0 ack 40 ------- 2 3.0 0.0 37 88
- 1.363728 2 0 ack 40 ------- 2 3.0 0.0 37 88
r 1.36456 3 2 ack 40 ------- 2 3.0 0.0 38 89
+ 1.36456 2 0 ack 40 ------- 2 3.0 0.0 38 89
- 1.36456 2 0 ack 40 ------- 2 3.0 0.0 38 89
r 1.365392 3 2 ack 40 ------- 2 3.0 0.0 39 90
+ 1.365392 2 0 ack 40 ------- 2 3.0 0.0 39 90
- 1.365392 2 0 ack 40 ------- 2 3.0 0.0 39 90
r 1.366224 3 2 ack 40 ------- 2 3.0 0.0 40 91
+ 1.366224 2 0 ack 40 ------- 2 3.0 0.0 40 91
- 1.366224 2 0 ack 40 ------- 2 3.0 0.0 40 91
r 1.367056 3 2 ack 40 ------- 2 3.0 0.0 41 92
+ 1.367056 2 0 ack 40 ------- 2 3.0 0.0 41 92
- 1.367056 2 0 ack 40 ------- 2 3.0 0.0 41 92
r 1.367888 3 2 ack 40 ------- 2 3.0 0.0 42 93
+ 1.367888 2 0 ack 40 ------- 2 3.0 0.0 42 93
- 1.367888 2 0 ack 40 ------- 2 3.0 0.0 42 93
r 1.36872 3 2 ack 40 ------- 2 3.0 0.0 43 94
+ 1.36872 2 0 ack 40 ------- 2 3.0 0.0 43 94
- 1.36872 2 0 ack 40 ------- 2 3.0 0.0 43 94
r 1.368768 2 0 ack 40 ------- 2 3.0 0.0 31 82
+ 1.368768 0 2 tcp 1040 ------- 2 0.0 3.0 51 102
- 1.368768 0 2 tcp 1040 ------- 2 0.0 3.0 51 102
r 1.369552 3 2 ack 40 ------- 2 3.0 0.0 44 95
+ 1.369552 2 0 ack 40 ------- 2 3.0 0.0 44 95
- 1.369552 2 0 ack 40 ------- 2 3.0 0.0 44 95
r 1.3696 2 0 ack 40 ------- 2 3.0 0.0 32 83
+ 1.3696 0 2 tcp 1040 ------- 2 0.0 3.0 52 103
- 1.3696 0 2 tcp 1040 ------- 2 0.0 3.0 52 103
r 1.370384 3 2 ack 40 ------- 2 3.0 0.0 45 96
+ 1.370384 2 0 ack 40 ------- 2 3.0 0.0 45 96
- 1.370384 2 0 ack 40 ------- 2 3.0 0.0 45 96
r 1.370432 2 0 ack 40 ------- 2 3.0 0.0 33 84
+ 1.370432 0 2 tcp 1040 ------- 2 0.0 3.0 53 104
- 1.370432 0 2 tcp 1040 ------- 2 0.0 3.0 53 104
r 1.371216 3 2 ack 40 ------- 2 3.0 0.0 46 97
+ 1.371216 2 0 ack 40 ------- 2 3.0 0.0 46 97
- 1.371216 2 0 ack 40 ------- 2 3.0 0.0 46 97
r 1.371264 2 0 ack 40 ------- 2 3.0 0.0 34 85
+ 1.371264 0 2 tcp 1040 ------- 2 0.0 3.0 54 105
- 1.371264 0 2 tcp 1040 ------- 2 0.0 3.0 54 105
r 1.372048 3 2 ack 40 ------- 2 3.0 0.0 47 98
+ 1.372048 2 0 ack 40 ------- 2 3.0 0.0 47 98
- 1.372048 2 0 ack 40 ------- 2 3.0 0.0 47 98
r 1.372096 2 0 ack 40 ------- 2 3.0 0.0 35 86
+ 1.372096 0 2 tcp 1040 ------- 2 0.0 3.0 55 106
- 1.372096 0 2 tcp 1040 ------- 2 0.0 3.0 55 106
r 1.37288 3 2 ack 40 ------- 2 3.0 0.0 48 99
+ 1.37288 2 0 ack 40 ------- 2 3.0 0.0 48 99
- 1.37288 2 0 ack 40 ------- 2 3.0 0.0 48 99
r 1.372928 2 0 ack 40 ------- 2 3.0 0.0 36 87
+ 1.372928 0 2 tcp 1040 ------- 2 0.0 3.0 56 107
- 1.372928 0 2 tcp 1040 ------- 2 0.0 3.0 56 107
r 1.373712 3 2 ack 40 ------- 2 3.0 0.0 49 100
+ 1.373712 2 0 ack 40 ------- 2 3.0 0.0 49 100
- 1.373712 2 0 ack 40 ------- 2 3.0 0.0 49 100
r 1.37376 2 0 ack 40 ------- 2 3.0 0.0 37 88
+ 1.37376 0 2 tcp 1040 ------- 2 0.0 3.0 57 108
- 1.37376 0 2 tcp 1040 ------- 2 0.0 3.0 57 108
r 1.374544 3 2 ack 40 ------- 2 3.0 0.0 50 101
+ 1.374544 2 0 ack 40 ------- 2 3.0 0.0 50 101
- 1.374544 2 0 ack 40 ------- 2 3.0 0.0 50 101
r 1.374592 2 0 ack 40 ------- 2 3.0 0.0 38 89
+ 1.374592 0 2 tcp 1040 ------- 2 0.0 3.0 58 109
- 1.374592 0 2 tcp 1040 ------- 2 0.0 3.0 58 109
r 1.375424 2 0 ack 40 ------- 2 3.0 0.0 39 90
+ 1.375424 0 2 tcp 1040 ------- 2 0.0 3.0 59 110
- 1.375424 0 2 tcp 1040 ------- 2 0.0 3.0 59 110
r 1.376256 2 0 ack 40 ------- 2 3.0 0.0 40 91
+ 1.376256 0 2 tcp 1040 ------- 2 0.0 3.0 60 111
- 1.376256 0 2 tcp 1040 ------- 2 0.0 3.0 60 111
r 1.377088 2 0 ack 40 ------- 2 3.0 0.0 41 92
+ 1.377088 0 2 tcp 1040 ------- 2 0.0 3.0 61 112
- 1.377088 0 2 tcp 1040 ------- 2 0.0 3.0 61 112
r 1.37792 2 0 ack 40 ------- 2 3.0 0.0 42 93
+ 1.37792 0 2 tcp 1040 ------- 2 0.0 3.0 62 113
- 1.37792 0 2 tcp 1040 ------- 2 0.0 3.0 62 113
r 1.378752 2 0 ack 40 ------- 2 3.0 0.0 43 94
+ 1.378752 0 2 tcp 1040 ------- 2 0.0 3.0 63 114
- 1.378752 0 2 tcp 1040 ------- 2 0.0 3.0 63 114
r 1.379584 2 0 ack 40 ------- 2 3.0 0.0 44 95
+ 1.379584 0 2 tcp 1040 ------- 2 0.0 3.0 64 115
- 1.379584 0 2 tcp 1040 ------- 2 0.0 3.0 64 115
r 1.3796 0 2 tcp 1040 ------- 2 0.0 3.0 51 102
+ 1.3796 2 3 tcp 1040 ------- 2 0.0 3.0 51 102
- 1.3796 2 3 tcp 1040 ------- 2 0.0 3.0 51 102
r 1.380416 2 0 ack 40 ------- 2 3.0 0.0 45 96
+ 1.380416 0 2 tcp 1040 ------- 2 0.0 3.0 65 116
- 1.380416 0 2 tcp 1040 ------- 2 0.0 3.0 65 116
r 1.380432 0 2 tcp 1040 ------- 2 0.0 3.0 52 103
+ 1.380432 2 3 tcp 1040 ------- 2 0.0 3.0 52 103
- 1.380432 2 3 tcp 1040 ------- 2 0.0 3.0 52 103
r 1.381248 2 0 ack 40 ------- 2 3.0 0.0 46 97