V -t * -v 1.0a5 -a 0
A -t * -n 1 -p 0 -o 0x7fffffff -c 30 -a 1
A -t * -h 1 -m 1073741823 -s 0
c -t * -i 1 -n Blue
c -t * -i 2 -n Red
n -t * -a 4 -s 4 -S UP -v circle -c black -i black
n -t * -a 0 -s 0 -S UP -v circle -c black -i black
n -t * -a 5 -s 5 -S UP -v circle -c black -i black
n -t * -a 1 -s 1 -S UP -v circle -c black -i black
n -t * -a 6 -s 6 -S UP -v circle -c black -i black
n -t * -a 2 -s 2 -S UP -v circle -c black -i black
n -t * -a 7 -s 7 -S UP -v circle -c black -i black
n -t * -a 3 -s 3 -S UP -v circle -c black -i black
l -t * -s 0 -d 1 -S UP -r 10000000 -D 0.01 -c black -o right-down
l -t * -s 1 -d 2 -S UP -r 10000000 -D 0.02 -c black -o right
l -t * -s 2 -d 3 -S UP -r 10000000 -D 0.02 -c black -o right-up
l -t * -s 3 -d 4 -S UP -r 10000000 -D 0.01 -c black -o left-up
l -t * -s 4 -d 5 -S UP -r 10000000 -D 0.01 -c black -o up
l -t * -s 5 -d 6 -S UP -r 10000000 -D 0.01 -c black -o left
l -t * -s 6 -d 7 -S UP -r 10000000 -D 0.01 -c black -o left-down
l -t * -s 7 -d 0 -S UP -r 10000000 -D 0.02 -c black -o left-down
q -t * -s 0 -d 7 -a 0.5
q -t * -s 7 -d 0 -a 0.5
q -t * -s 3 -d 4 -a 0.5
q -t * -s 4 -d 3 -a 0.5
q -t * -s 4 -d 5 -a 0.5
q -t * -s 5 -d 4 -a 0.5
q -t * -s 6 -d 5 -a 0.5
q -t * -s 5 -d 6 -a 0.5
q -t * -s 7 -d 6 -a 0.5
q -t * -s 6 -d 7 -a 0.5
q -t * -s 0 -d 1 -a 0.5
q -t * -s 1 -d 0 -a 0.5
q -t * -s 1 -d 2 -a 0.5
q -t * -s 2 -d 1 -a 0.5
q -t * -s 2 -d 3 -a 0.5
q -t * -s 3 -d 2 -a 0.5
+ -t 1 -s 0 -d 1 -p tcp -e 40 -c 2 -i 0 -a 2 -x {0.0 4.0 0 ------- null}
- -t 1 -s 0 -d 1 -p tcp -e 40 -c 2 -i 0 -a 2 -x {0.0 4.0 0 ------- null}
h -t 1 -s 0 -d 1 -p tcp -e 40 -c 2 -i 0 -a 2 -x {0.0 4.0 -1 ------- null}
r -t 1.010032 -s 0 -d 1 -p tcp -e 40 -c 2 -i 0 -a 2 -x {0.0 4.0 0 ------- null}
+ -t 1.010032 -s 1 -d 2 -p tcp -e 40 -c 2 -i 0 -a 2 -x {0.0 4.0 0 ------- null}
- -t 1.010032 -s 1 -d 2 -p tcp -e 40 -c 2 -i 0 -a 2 -x {0.0 4.0 0 ------- null}
h -t 1.010032 -s 1 -d 2 -p tcp -e 40 -c 2 -i 0 -a 2 -x {0.0 4.0 -1 ------- null}
r -t 1.030064 -s 1 -d 2 -p tcp -e 40 -c 2 -i 0 -a 2 -x {0.0 4.0 0 ------- null}
+ -t 1.030064 -s 2 -d 3 -p tcp -e 40 -c 2 -i 0 -a 2 -x {0.0 4.0 0 ------- null}
- -t 1.030064 -s 2 -d 3 -p tcp -e 40 -c 2 -i 0 -a 2 -x {0.0 4.0 0 ------- null}
h -t 1.030064 -s 2 -d 3 -p tcp -e 40 -c 2 -i 0 -a 2 -x {0.0 4.0 -1 ------- null}
r -t 1.050096 -s 2 -d 3 -p tcp -e 40 -c 2 -i 0 -a 2 -x {0.0 4.0 0 ------- null}
+ -t 1.050096 -s 3 -d 4 -p tcp -e 40 -c 2 -i 0 -a 2 -x {0.0 4.0 0 ------- null}
- -t 1.050096 -s 3 -d 4 -p tcp -e 40 -c 2 -i 0 -a 2 -x {0.0 4.0 0 ------- null}
h -t 1.050096 -s 3 -d 4 -p tcp -e 40 -c 2 -i 0 -a 2 -x {0.0 4.0 -1 ------- null}
r -t 1.060128 -s 3 -d 4 -p tcp -e 40 -c 2 -i 0 -a 2 -x {0.0 4.0 0 ------- null}
+ -t 1.060128 -s 4 -d 3 -p ack -e 40 -c 2 -i 1 -a 2 -x {4.0 0.0 0 ------- null}
- -t 1.060128 -s 4 -d 3 -p ack -e 40 -c 2 -i 1 -a 2 -x {4.0 0.0 0 ------- null}
h -t 1.060128 -s 4 -d 3 -p ack -e 40 -c 2 -i 1 -a 2 -x {4.0 0.0 -1 ------- null}
r -t 1.07016 -s 4 -d 3 -p ack -e 40 -c 2 -i 1 -a 2 -x {4.0 0.0 0 ------- null}
+ -t 1.07016 -s 3 -d 2 -p ack -e 40 -c 2 -i 1 -a 2 -x {4.0 0.0 0 ------- null}
- -t 1.07016 -s 3 -d 2 -p ack -e 40 -c 2 -i 1 -a 2 -x {4.0 0.0 0 ------- null}
h -t 1.07016 -s 3 -d 2 -p ack -e 40 -c 2 -i 1 -a 2 -x {4.0 0.0 -1 ------- null}
r -t 1.090192 -s 3 -d 2 -p ack -e 40 -c 2 -i 1 -a 2 -x {4.0 0.0 0 ------- null}
+ -t 1.090192 -s 2 -d 1 -p ack -e 40 -c 2 -i 1 -a 2 -x {4.0 0.0 0 ------- null}
- -t 1.090192 -s 2 -d 1 -p ack -e 40 -c 2 -i 1 -a 2 -x {4.0 0.0 0 ------- null}
h -t 1.090192 -s 2 -d 1 -p ack -e 40 -c 2 -i 1 -a 2 -x {4.0 0.0 -1 ------- null}
r -t 1.110224 -s 2 -d 1 -p ack -e 40 -c 2 -i 1 -a 2 -x {4.0 0.0 0 ------- null}
+ -t 1.110224 -s 1 -d 0 -p ack -e 40 -c 2 -i 1 -a 2 -x {4.0 0.0 0 ------- null}
- -t 1.110224 -s 1 -d 0 -p ack -e 40 -c 2 -i 1 -a 2 -x {4.0 0.0 0 ------- null}
h -t 1.110224 -s 1 -d 0 -p ack -e 40 -c 2 -i 1 -a 2 -x {4.0 0.0 -1 ------- null}
r -t 1.120256 -s 1 -d 0 -p ack -e 40 -c 2 -i 1 -a 2 -x {4.0 0.0 0 ------- null}
+ -t 1.120256 -s 0 -d 1 -p tcp -e 1040 -c 2 -i 2 -a 2 -x {0.0 4.0 1 ------- null}
- -t 1.120256 -s 0 -d 1 -p tcp -e 1040 -c 2 -i 2 -a 2 -x {0.0 4.0 1 ------- null}
h -t 1.120256 -s 0 -d 1 -p tcp -e 1040 -c 2 -i 2 -a 2 -x {0.0 4.0 -1 ------- null}
+ -t 1.120256 -s 0 -d 1 -p tcp -e 1040 -c 2 -i 3 -a 2 -x {0.0 4.0 2 ------- null}
- -t 1.121088 -s 0 -d 1 -p tcp -e 1040 -c 2 -i 3 -a 2 -x {0.0 4.0 2 ------- null}
h -t 1.121088 -s 0 -d 1 -p tcp -e 1040 -c 2 -i 3 -a 2 -x {0.0 4.0 -1 ------- null}
r -t 1.131088 -s 0 -d 1 -p tcp -e 1040 -c 2 -i 2 -a 2 -x {0.0 4.0 1 ------- null}
+ -t 1.131088 -s 1 -d 2 -p tcp -e 1040 -c 2 -i 2 -a 2 -x {0.0 4.0 1 ------- null}
- -t 1.131088 -s 1 -d 2 -p tcp -e 1040 -c 2 -i 2 -a 2 -x {0.0 4.0 1 ------- null}
h -t 1.131088 -s 1 -d 2 -p tcp -e 1040 -c 2 -i 2 -a 2 -x {0.0 4.0 -1 ------- null}
r -t 1.13192 -s 0 -d 1 -p tcp -e 1040 -c 2 -i 3 -a 2 -x {0.0 4.0 2 ------- null}
+ -t 1.13192 -s 1 -d 2 -p tcp -e 1040 -c 2 -i 3 -a 2 -x {0.0 4.0 2 ------- null}
- -t 1.13192 -s 1 -d 2 -p tcp -e 1040 -c 2 -i 3 -a 2 -x {0.0 4.0 2 ------- null}
h -t 1.13192 -s 1 -d 2 -p tcp -e 1040 -c 2 -i 3 -a 2 -x {0.0 4.0 -1 ------- null}
r -t 1.15192 -s 1 -d 2 -p tcp -e 1040 -c 2 -i 2 -a 2 -x {0.0 4.0 1 ------- null}
+ -t 1.15192 -s 2 -d 3 -p tcp -e 1040 -c 2 -i 2 -a 2 -x {0.0 4.0 1 ------- null}
- -t 1.15192 -s 2 -d 3 -p tcp -e 1040 -c 2 -i 2 -a 2 -x {0.0 4.0 1 ------- null}
h -t 1.15192 -s 2 -d 3 -p tcp -e 1040 -c 2 -i 2 -a 2 -x {0.0 4.0 -1 ------- null}
r -t 1.152752 -s 1 -d 2 -p tcp -e 1040 -c 2 -i 3 -a 2 -x {0.0 4.0 2 ------- null}
+ -t 1.152752 -s 2 -d 3 -p tcp -e 1040 -c 2 -i 3 -a 2 -x {0.0 4.0 2 ------- null}
- -t 1.152752 -s 2 -d 3 -p tcp -e 1040 -c 2 -i 3 -a 2 -x {0.0 4.0 2 ------- null}
h -t 1.152752 -s 2 -d 3 -p tcp -e 1040 -c 2 -i 3 -a 2 -x {0.0 4.0 -1 ------- null}
r -t 1.172752 -s 2 -d 3 -p tcp -e 1040 -c 2 -i 2 -a 2 -x {0.0 4.0 1 ------- null}
+ -t 1.172752 -s 3 -d 4 -p tcp -e 1040 -c 2 -i 2 -a 2 -x {0.0 4.0 1 ------- null}
- -t 1.172752 -s 3 -d 4 -p tcp -e 1040 -c 2 -i 2 -a 2 -x {0.0 4.0 1 ------- null}
h -t 1.172752 -s 3 -d 4 -p tcp -e 1040 -c 2 -i 2 -a 2 -x {0.0 4.0 -1 ------- null}
r -t 1.173584 -s 2 -d 3 -p tcp -e 1040 -c 2 -i 3 -a 2 -x {0.0 4.0 2 ------- null}
+ -t 1.173584 -s 3 -d 4 -p tcp -e 1040 -c 2 -i 3 -a 2 -x {0.0 4.0 2 ------- null}
- -t 1.173584 -s 3 -d 4 -p tcp -e 1040 -c 2 -i 3 -a 2 -x {0.0 4.0 2 ------- null}
h -t 1.173584 -s 3 -d 4 -p tcp -e 1040 -c 2 -i 3 -a 2 -x {0.0 4.0 -1 ------- null}
r -t 1.183584 -s 3 -d 4 -p tcp -e 1040 -c 2 -i 2 -a 2 -x {0.0 4.0 1 ------- null}
+ -t 1.183584 -s 4 -d 3 -p ack -e 40 -c 2 -i 4 -a 2 -x {4.0 0.0 1 ------- null}
- -t 1.183584 -s 4 -d 3 -p ack -e 40 -c 2 -i 4 -a 2 -x {4.0 0.0 1 ------- null}
h -t 1.183584 -s 4 -d 3 -p ack -e 40 -c 2 -i 4 -a 2 -x {4.0 0.0 -1 ------- null}
r -t 1.184416 -s 3 -d 4 -p tcp -e 1040 -c 2 -i 3 -a 2 -x {0.0 4.0 2 ------- null}
+ -t 1.184416 -s 4 -d 3 -p ack -e 40 -c 2 -i 5 -a 2 -x {4.0 0.0 2 ------- null}
- -t 1.184416 -s 4 -d 3 -p ack -e 40 -c 2 -i 5 -a 2 -x {4.0 0.0 2 ------- null}
h -t 1.184416 -s 4 -d 3 -p ack -e 40 -c 2 -i 5 -a 2 -x {4.0 0.0 -1 ------- null}
r -t 1.193616 -s 4 -d 3 -p ack -e 40 -c 2 -i 4 -a 2 -x {4.0 0.0 1 ------- null}
+ -t 1.193616 -s 3 -d 2 -p ack -e 40 -c 2 -i 4 -a 2 -x {4.0 0.0 1 ------- null}
- -t 1.193616 -s 3 -d 2 -p ack -e 40 -c 2 -i 4 -a 2 -x {4.0 0.0 1 ------- null}
h -t 1.193616 -s 3 -d 2 -p ack -e 40 -c 2 -i 4 -a 2 -x {4.0 0.0 -1 ------- null}
r -t 1.194448 -s 4 -d 3 -p ack -e 40 -c 2 -i 5 -a 2 -x {4.0 0.0 2 ------- null}
+ -t 1.194448 -s 3 -d 2 -p ack -e 40 -c 2 -i 5 -a 2 -x {4.0 0.0 2 ------- null}
- -t 1.194448 -s 3 -d 2 -p ack -e 40 -c 2 -i 5 -a 2 -x {4.0 0.0 2 ------- null}
h -t 1.194448 -s 3 -d 2 -p ack -e 40 -c 2 -i 5 -a 2 -x {4.0 0.0 -1 ------- null}
r -t 1.213648 -s 3 -d 2 -p ack -e 40 -c 2 -i 4 -a 2 -x {4.0 0.0 1 ------- null}
+ -t 1.213648 -s 2 -d 1 -p ack -e 40 -c 2 -i 4 -a 2 -x {4.0 0.0 1 ------- null}
- -t 1.213648 -s 2 -d 1 -p ack -e 40 -c 2 -i 4 -a 2 -x {4.0 0.0 1 ------- null}
h -t 1.213648 -s 2 -d 1 -p ack -e 40 -c 2 -i 4 -a 2 -x {4.0 0.0 -1 ------- null}
r -t 1.21448 -s 3 -d 2 -p ack -e 40 -c 2 -i 5 -a 2 -x {4.0 0.0 2 ------- null}
+ -t 1.21448 -s 2 -d 1 -p ack -e 40 -c 2 -i 5 -a 2 -x {4.0 0.0 2 ------- null}
- -t 1.21448 -s 2 -d 1 -p ack -e 40 -c 2 -i 5 -a 2 -x {4.0 0.0 2 ------- null}
h -t 1.21448 -s 2 -d 1 -p ack -e 40 -c 2 -i 5 -a 2 -x {4.0 0.0 -1 ------- null}
r -t 1.23368 -s 2 -d 1 -p ack -e 40 -c 2 -i 4 -a 2 -x {4.0 0.0 1 ------- null}
+ -t 1.23368 -s 1 -d 0 -p ack -e 40 -c 2 -i 4 -a 2 -x {4.0 0.0 1 ------- null}
- -t 1.23368 -s 1 -d 0 -p ack -e 40 -c 2 -i 4 -a 2 -x {4.0 0.0 1 ------- null}
h -t 1.23368 -s 1 -d 0 -p ack -e 40 -c 2 -i 4 -a 2 -x {4.0 0.0 -1 ------- null}
r -t 1.234512 -s 2 -d 1 -p ack -e 40 -c 2 -i 5 -a 2 -x {4.0 0.0 2 ------- null}
+ -t 1.234512 -s 1 -d 0 -p ack -e 40 -c 2 -i 5 -a 2 -x {4.0 0.0 2 ------- null}
- -t 1.234512 -s 1 -d 0 -p ack -e 40 -c 2 -i 5 -a 2 -x {4.0 0.0 2 ------- null}
h -t 1.234512 -s 1 -d 0 -p ack -e 40 -c 2 -i 5 -a 2 -x {4.0 0.0 -1 ------- null}
r -t 1.243712 -s 1 -d 0 -p ack -e 40 -c 2 -i 4 -a 2 -x {4.0 0.0 1 ------- null}
+ -t 1.243712 -s 0 -d 1 -p tcp -e 1040 -c 2 -i 6 -a 2 -x {0.0 4.0 3 ------- null}
- -t 1.243712 -s 0 -d 1 -p tcp -e 1040 -c 2 -i 6 -a 2 -x {0.0 4.0 3 ------- null}
h -t 1.243712 -s 0 -d 1 -p tcp -e 1040 -c 2 -i 6 -a 2 -x {0.0 4.0 -1 ------- null}
+ -t 1.243712 -s 0 -d 1 -p tcp -e 1040 -c 2 -i 7 -a 2 -x {0.0 4.0 4 ------- null}
r -t 1.244544 -s 1 -d 0 -p ack -e 40 -c 2 -i 5 -a 2 -x {4.0 0.0 2 ------- null}
+ -t 1.244544 -s 0 -d 1 -p tcp -e 1040 -c 2 -i 8 -a 2 -x {0.0 4.0 5 ------- null}
+ -t 1.244544 -s 0 -d 1 -p tcp -e 1040 -c 2 -i 9 -a 2 -x {0.0 4.0 6 ------- null}
- -t 1.244544 -s 0 -d 1 -p tcp -e 1040 -c 2 -i 7 -a 2 -x {0.0 4.0 4 ------- null}
h -t 1.244544 -s 0 -d 1 -p tcp -e 1040 -c 2 -i 7 -a 2 -x {0.0 4.0 -1 ------- null}
- -t 1.245376 -s 0 -d 1 -p tcp -e 1040 -c 2 -i 8 -a 2 -x {0.0 4.0 5 ------- null}
h -t 1.245376 -s 0 -d 1 -p tcp -e 1040 -c 2 -i 8 -a 2 -x {0.0 4.0 -1 ------- null}
- -t 1.246208 -s 0 -d 1 -p tcp -e 1040 -c 2 -i 9 -a 2 -x {0.0 4.0 6 ------- null}
h -t 1.246208 -s 0 -d 1 -p tcp -e 1040 -c 2 -i 9 -a 2 -x {0.0 4.0 -1 ------- null}
r -t 1.254544 -s 0 -d 1 -p tcp -e 1040 -c 2 -i 6 -a 2 -x {0.0 4.0 3 ------- null}
+ -t 1.254544 -s 1 -d 2 -p tcp -e 1040 -c 2 -i 6 -a 2 -x {0.0 4.0 3 ------- null}
- -t 1.254544 -s 1 -d 2 -p tcp -e 1040 -c 2 -i 6 -a 2 -x {0.0 4.0 3 ------- null}
h -t 1.254544 -s 1 -d 2 -p tcp -e 1040 -c 2 -i 6 -a 2 -x {0.0 4.0 -1 ------- null}
r -t 1.255376 -s 0 -d 1 -p tcp -e 1040 -c 2 -i 7 -a 2 -x {0.0 4.0 4 ------- null}
+ -t 1.255376 -s 1 -d 2 -p tcp -e 1040 -c 2 -i 7 -a 2 -x {0.0 4.0 4 ------- null}
- -t 1.255376 -s 1 -d 2 -p tcp -e 1040 -c 2 -i 7 -a 2 -x {0.0 4.0 4 ------- null}
h -t 1.255376 -s 1 -d 2 -p tcp -e 1040 -c 2 -i 7 -a 2 -x {0.0 4.0 -1 ------- null}
r -t 1.256208 -s 0 -d 1 -p tcp -e 1040 -c 2 -i 8 -a 2 -x {0.0 4.0 5 ------- null}
+ -t 1.256208 -s 1 -d 2 -p tcp -e 1040 -c 2 -i 8 -a 2 -x {0.0 4.0 5 ------- null}
- -t 1.256208 -s 1 -d 2 -p tcp -e 1040 -c 2 -i 8 -a 2 -x {0.0 4.0 5 ------- null}
h -t 1.256208 -s 1 -d 2 -p tcp -e 1040 -c 2 -i 8 -a 2 -x {0.0 4.0 -1 ------- null}
r -t 1.25704 -s 0 -d 1 -p tcp -e 1040 -c 2 -i 9 -a 2 -x {0.0 4.0 6 ------- null}
+ -t 1.25704 -s 1 -d 2 -p tcp -e 1040 -c 2 -i 9 -a 2 -x {0.0 4.0 6 ------- null}
- -t 1.25704 -s 1 -d 2 -p tcp -e 1040 -c 2 -i 9 -a 2 -x {0.0 4.0 6 ------- null}
h -t 1.25704 -s 1 -d 2 -p tcp -e 1040 -c 2 -i 9 -a 2 -x {0.0 4.0 -1 ------- null}
r -t 1.275376 -s 1 -d 2 -p tcp -e 1040 -c 2 -i 6 -a 2 -x {0.0 4.0 3 ------- null}
+ -t 1.275376 -s 2 -d 3 -p tcp -e 1040 -c 2 -i 6 -a 2 -x {0.0 4.0 3 ------- null}
- -t 1.275376 -s 2 -d 3 -p tcp -e 1040 -c 2 -i 6 -a 2 -x {0.0 4.0 3 ------- null}
h -t 1.275376 -s 2 -d 3 -p tcp -e 1040 -c 2 -i 6 -a 2 -x {0.0 4.0 -1 ------- null}
r -t 1.276208 -s 1 -d 2 -p tcp -e 1040 -c 2 -i 7 -a 2 -x {0.0 4.0 4 ------- null}
+ -t 1.276208 -s 2 -d 3 -p tcp -e 1040 -c 2 -i 7 -a 2 -x {0.0 4.0 4 ------- null}
- -t 1.276208 -s 2 -d 3 -p tcp -e 1040 -c 2 -i 7 -a 2 -x {0.0 4.0 4 ------- null}
h -t 1.276208 -s 2 -d 3 -p tcp -e 1040 -c 2 -i 7 -a 2 -x {0.0 4.0 -1 ------- null}
r -t 1.27704 -s 1 -d 2 -p tcp -e 1040 -c 2 -i 8 -a 2 -x {0.0 4.0 5 ------- null}
+ -t 1.27704 -s 2 -d 3 -p tcp -e 1040 -c 2 -i 8 -a 2 -x {0.0 4.0 5 ------- null}
- -t 1.27704 -s 2 -d 3 -p tcp -e 1040 -c 2 -i 8 -a 2 -x {0.0 4.0 5 ------- null}
h -t 1.27704 -s 2 -d 3 -p tcp -e 1040 -c 2 -i 8 -a 2 -x {0.0 4.0 -1 ------- null}
r -t 1.277872 -s 1 -d 2 -p tcp -e 1040 -c 2 -i 9 -a 2 -x {0.0 4.0 6 ------- null}
+ -t 1.277872 -s 2 -d 3 -p tcp -e 1040 -c 2 -i 9 -a 2 -x {0.0 4.0 6 ------- null}
- -t 1.277872 -s 2 -d 3 -p tcp -e 1040 -c 2 -i 9 -a 2 -x {0.0 4.0 6 ------- null}
h -t 1.277872 -s 2 -d 3 -p tcp -e 1040 -c 2 -i 9 -a 2 -x {0.0 4.0 -1 ------- null}
r -t 1.296208 -s 2 -d 3 -p tcp -e 1040 -c 2 -i 6 -a 2 -x {0.0 4.0 3 ------- null}
+ -t 1.296208 -s 3 -d 4 -p tcp -e 1040 -c 2 -i 6 -a 2 -x {0.0 4.0 3 ------- null}
- -t 1.296208 -s 3 -d 4 -p tcp -e 1040 -c 2 -i 6 -a 2 -x {0.0 4.0 3 ------- null}
h -t 1.296208 -s 3 -d 4 -p tcp -e 1040 -c 2 -i 6 -a 2 -x {0.0 4.0 -1 ------- null}
r -t 1.29704 -s 2 -d 3 -p tcp -e 1040 -c 2 -i 7 -a 2 -x {0.0 4.0 4 ------- null}
+ -t 1.29704 -s 3 -d 4 -p tcp -e 1040 -c 2 -i 7 -a 2 -x {0.0 4.0 4 ------- null}
- -t 1.29704 -s 3 -d 4 -p tcp -e 1040 -c 2 -i 7 -a 2 -x {0.0 4.0 4 ------- null}
h -t 1.29704 -s 3 -d 4 -p tcp -e 1040 -c 2 -i 7 -a 2 -x {0.0 4.0 -1 ------- null}
r -t 1.297872 -s 2 -d 3 -p tcp -e 1040 -c 2 -i 8 -a 2 -x {0.0 4.0 5 ------- null}
+ -t 1.297872 -s 3 -d 4 -p tcp -e 1040 -c 2 -i 8 -a 2 -x {0.0 4.0 5 ------- null}
- -t 1.297872 -s 3 -d 4 -p tcp -e 1040 -c 2 -i 8 -a 2 -x {0.0 4.0 5 ------- null}
h -t 1.297872 -s 3 -d 4 -p tcp -e 1040 -c 2 -i 8 -a 2 -x {0.0 4.0 -1 ------- null}
r -t 1.298704 -s 2 -d 3 -p tcp -e 1040 -c 2 -i 9 -a 2 -x {0.0 4.0 6 ------- null}
+ -t 1.298704 -s 3 -d 4 -p tcp -e 1040 -c 2 -i 9 -a 2 -x {0.0 4.0 6 ------- null}
- -t 1.298704 -s 3 -d 4 -p tcp -e 1040 -c 2 -i 9 -a 2 -x {0.0 4.0 6 ------- null}
h -t 1.298704 -s 3 -d 4 -p tcp -e 1040 -c 2 -i 9 -a 2 -x {0.0 4.0 -1 ------- null}
r -t 1.30704 -s 3 -d 4 -p tcp -e 1040 -c 2 -i 6 -a 2 -x {0.0 4.0 3 ------- null}
+ -t 1.30704 -s 4 -d 3 -p ack -e 40 -c 2 -i 10 -a 2 -x {4.0 0.0 3 ------- null}
- -t 1.30704 -s 4 -d 3 -p ack -e 40 -c 2 -i 10 -a 2 -x {4.0 0.0 3 ------- null}
h -t 1.30704 -s 4 -d 3 -p ack -e 40 -c 2 -i 10 -a 2 -x {4.0 0.0 -1 ------- null}
r -t 1.307872 -s 3 -d 4 -p tcp -e 1040 -c 2 -i 7 -a 2 -x {0.0 4.0 4 ------- null}
+ -t 1.307872 -s 4 -d 3 -p ack -e 40 -c 2 -i 11 -a 2 -x {4.0 0.0 4 ------- null}
- -t 1.307872 -s 4 -d 3 -p ack -e 40 -c 2 -i 11 -a 2 -x {4.0 0.0 4 ------- null}
h -t 1.307872 -s 4 -d 3 -p ack -e 40 -c 2 -i 11 -a 2 -x {4.0 0.0 -1 ------- null}
r -t 1.308704 -s 3 -d 4 -p tcp -e 1040 -c 2 -i 8 -a 2 -x {0.0 4.0 5 ------- null}
+ -t 1.308704 -s 4 -d 3 -p ack -e 40 -c 2 -i 12 -a 2 -x {4.0 0.0 5 ------- null}
- -t 1.308704 -s 4 -d 3 -p ack -e 40 -c 2 -i 12 -a 2 -x {4.0 0.0 5 ------- null}
h -t 1.308704 -s 4 -d 3 -p ack -e 40 -c 2 -i 12 -a 2 -x {4.0 0.0 -1 ------- null}
r -t 1.309536 -s 3 -d 4 -p tcp -e 1040 -c 2 -i 9 -a 2 -x {0.0 4.0 6 ------- null}
+ -t 1.309536 -s 4 -d 3 -p ack -e 40 -c 2 -i 13 -a 2 -x {4.0 0.0 6 ------- null}
- -t 1.309536 -s 4 -d 3 -p ack -e 40 -c 2 -i 13 -a 2 -x {4.0 0.0 6 ------- null}
h -t 1.309536 -s 4 -d 3 -p ack -e 40 -c 2 -i 13 -a 2 -x {4.0 0.0 -1 ------- null}
r -t 1.317072 -s 4 -d 3 -p ack -e 40 -c 2 -i 10 -a 2 -x {4.0 0.0 3 ------- null}
+ -t 1.317072 -s 3 -d 2 -p ack -e 40 -c 2 -i 10 -a 2 -x {4.0 0.0 3 ------- null}
- -t 1.317072 -s 3 -d 2 -p ack -e 40 -c 2 -i 10 -a 2 -x {4.0 0.0 3 ------- null}
h -t 1.317072 -s 3 -d 2 -p ack -e 40 -c 2 -i 10 -a 2 -x {4.0 0.0 -1 ------- null}
r -t 1.317904 -s 4 -d 3 -p ack -e 40 -c 2 -i 11 -a 2 -x {4.0 0.0 4 ------- null}
+ -t 1.317904 -s 3 -d 2 -p ack -e 40 -c 2 -i 11 -a 2 -x {4.0 0.0 4 ------- null}
- -t 1.317904 -s 3 -d 2 -p ack -e 40 -c 2 -i 11 -a 2 -x {4.0 0.0 4 ------- null}
h -t 1.317904 -s 3 -d 2 -p ack -e 40 -c 2 -i 11 -a 2 -x {4.0 0.0 -1 ------- null}
r -t 1.318736 -s 4 -d 3 -p ack -e 40 -c 2 -i 12 -a 2 -x {4.0 0.0 5 ------- null}
+ -t 1.318736 -s 3 -d 2 -p ack -e 40 -c 2 -i 12 -a 2 -x {4.0 0.0 5 ------- null}
- -t 1.318736 -s 3 -d 2 -p ack -e 40 -c 2 -i 12 -a 2 -x {4.0 0.0 5 ------- null}
h -t 1.318736 -s 3 -d 2 -p ack -e 40 -c 2 -i 12 -a 2 -x {4.0 0.0 -1 ------- null}
r -t 1.319568 -s 4 -d 3 -p ack -e 40 -c 2 -i 13 -a 2 -x {4.0 0.0 6 ------- null}
+ -t 1.319568 -s 3 -d 2 -p ack -e 40 -c 2 -i 13 -a 2 -x {4.0 0.0 6 ------- null}
- -t 1.319568 -s 3 -d 2 -p ack -e 40 -c 2 -i 13 -a 2 -x {4.0 0.0 6 ------- null}
h -t 1.319568 -s 3 -d 2 -p ack -e 40 -c 2 -i 13 -a 2 -x {4.0 0.0 -1 ------- null}
r -t 1.337104 -s 3 -d 2 -p ack -e 40 -c 2 -i 10 -a 2 -x {4.0 0.0 3 ------- null}
+ -t 1.337104 -s 2 -d 1 -p ack -e 40 -c 2 -i 10 -a 2 -x {4.0 0.0 3 ------- null}
- -t 1.337104 -s 2 -d 1 -p ack -e 40 -c 2 -i 10 -a 2 -x {4.0 0.0 3 ------- null}
h -t 1.337104 -s 2 -d 1 -p ack -e 40 -c 2 -i 10 -a 2 -x {4.0 0.0 -1 ------- null}
r -t 1.337936 -s 3 -d 2 -p ack -e 40 -c 2 -i 11 -a 2 -x {4.0 0.0 4 ------- null}
+ -t 1.337936 -s 2 -d 1 -p ack -e 40 -c 2 -i 11 -a 2 -x {4.0 0.0 4 ------- null}
- -t 1.337936 -s 2 -d 1 -p ack -e 40 -c 2 -i 11 -a 2 -x {4.0 0.0 4 ------- null}
h -t 1.337936 -s 2 -d 1 -p ack -e 40 -c 2 -i 11 -a 2 -x {4.0 0.0 -1 ------- null}
r -t 1.338768 -s 3 -d 2 -p ack -e 40 -c 2 -i 12 -a 2 -x {4.0 0.0 5 ------- null}
+ -t 1.338768 -s 2 -d 1 -p ack -e 40 -c 2 -i 12 -a 2 -x {4.0 0.0 5 ------- null}
- -t 1.338768 -s 2 -d 1 -p ack -e 40 -c 2 -i 12 -a 2 -x {4.0 0.0 5 ------- null}
h -t 1.338768 -s 2 -d 1 -p ack -e 40 -c 2 -i 12 -a 2 -x {4.0 0.0 -1 ------- null}
r -t 1.3396 -s 3 -d 2 -p ack -e 40 -c 2 -i 13 -a 2 -x {4.0 0.0 6 ------- null}
+ -t 1.3396 -s 2 -d 1 -p ack -e 40 -c 2 -i 13 -a 2 -x {4.0 0.0 6 ------- null}
- -t 1.3396 -s 2 -d 1 -p ack -e 40 -c 2 -i 13 -a 2 -x {4.0 0.0 6 ------- null}
h -t 1.3396 -s 2 -d 1 -p ack -e 40 -c 2 -i 13 -a 2 -x {4.0 0.0 -1 ------- null}
r -t 1.357136 -s 2 -d 1 -p ack -e 40 -c 2 -i 10 -a 2 -x {4.0 0.0 3 ------- null}
+ -t 1.357136 -s 1 -d 0 -p ack -e 40 -c 2 -i 10 -a 2 -x {4.0 0.0 3 ------- null}
- -t 1.357136 -s 1 -d 0 -p ack -e 40 -c 2 -i 10 -a 2 -x {4.0 0.0 3 ------- null}
h -t 1.357136 -s 1 -d 0 -p ack -e 40 -c 2 -i 10 -a 2 -x {4.0 0.0 -1 ------- null}
r -t 1.357968 -s 2 -d 1 -p ack -e 40 -c 2 -i 11 -a 2 -x {4.0 0.0 4 ------- null}
+ -t 1.357968 -s 1 -d 0 -p ack -e 40 -c 2 -i 11 -a 2 -x {4.0 0.0 4 ------- null}
- -t 1.357968 -s 1 -d 0 -p ack -e 40 -c 2 -i 11 -a 2 -x {4.0 0.0 4 ------- null}
h -t 1.357968 -s 1 -d 0 -p ack -e 40 -c 2 -i 11 -a 2 -x {4.0 0.0 -1 ------- null}
r -t 1.3588 -s 2 -d 1 -p ack -e 40 -c 2 -i 12 -a 2 -x {4.0 0.0 5 ------- null}
+ -t 1.3588 -s 1 -d 0 -p ack -e 40 -c 2 -i 12 -a 2 -x {4.0 0.0 5 ------- null}
- -t 1.3588 -s 1 -d 0 -p ack -e 40 -c 2 -i 12 -a 2 -x {4.0 0.0 5 ------- null}
h -t 1.3588 -s 1 -d 0 -p ack -e 40 -c 2 -i 12 -a 2 -x {4.0 0.0 -1 ------- null}
r -t 1.359632 -s 2 -d 1 -p ack -e 40 -c 2 -i 13 -a 2 -x {4.0 0.0 6 ------- null}
+ -t 1.359632 -s 1 -d 0 -p ack -e 40 -c 2 -i 13 -a 2 -x {4.0 0.0 6 ------- null}
- -t 1.359632 -s 1 -d 0 -p ack -e 40 -c 2 -i 13 -a 2 -x {4.0 0.0 6 ------- null}
h -t 1.359632 -s 1 -d 0 -p ack -e 40 -c 2 -i 13 -a 2 -x {4.0 0.0 -1 ------- null}
r -t 1.367168 -s 1 -d 0 -p ack -e 40 -c 2 -i 10 -a 2 -x {4.0 0.0 3 ------- null}
+ -t 1.367168 -s 0 -d 1 -p tcp -e 1040 -c 2 -i 14 -a 2 -x {0.0 4.0 7 ------- null}
- -t 1.367168 -s 0 -d 1 -p tcp -e 1040 -c 2 -i 14 -a 2 -x {0.0 4.0 7 ------- null}
h -t 1.367168 -s 0 -d 1 -p tcp -e 1040 -c 2 -i 14 -a 2 -x {0.0 4.0 -1 ------- null}
+ -t 1.367168 -s 0 -d 1 -p tcp -e 1040 -c 2 -i 15 -a 2 -x {0.0 4.0 8 ------- null}
r -t 1.368 -s 1 -d 0 -p ack -e 40 -c 2 -i 11 -a 2 -x {4.0 0.0 4 ------- null}
+ -t 1.368 -s 0 -d 1 -p tcp -e 1040 -c 2 -i 16 -a 2 -x {0.0 4.0 9 ------- null}
+ -t 1.368 -s 0 -d 1 -p tcp -e 1040 -c 2 -i 17 -a 2 -x {0.0 4.0 10 ------- null}
- -t 1.368 -s 0 -d 1 -p tcp -e 1040 -c 2 -i 15 -a 2 -x {0.0 4.0 8 ------- null}
h -t 1.368 -s 0 -d 1 -p tcp -e 1040 -c 2 -i 15 -a 2 -x {0.0 4.0 -1 ------- null}
r -t 1.368832 -s 1 -d 0 -p ack -e 40 -c 2 -i 12 -a 2 -x {4.0 0.0 5 ------- null}
+ -t 1.368832 -s 0 -d 1 -p tcp -e 1040 -c 2 -i 18 -a 2 -x {0.0 4.0 11 ------- null}
+ -t 1.368832 -s 0 -d 1 -p tcp -e 1040 -c 2 -i 19 -a 2 -x {0.0 4.0 12 ------- null}
- -t 1.368832 -s 0 -d 1 -p tcp -e 1040 -c 2 -i 16 -a 2 -x {0.0 4.0 9 ------- null}
h -t 1.368832 -s 0 -d 1 -p tcp -e 1040 -c 2 -i 16 -a 2 -x {0.0 4.0 -1 ------- null}
r -t 1.369664 -s 1 -d 0 -p ack -e 40 -c 2 -i 13 -a 2 -x {4.0 0.0 6 ------- null}
+ -t 1.369664 -s 0 -d 1 -p tcp -e 1040 -c 2 -i 20 -a 2 -x {0.0 4.0 13 ------- null}
+ -t 1.369664 -s 0 -d 1 -p tcp -e 1040 -c 2 -i 21 -a 2 -x {0.0 4.0 14 ------- null}
- -t 1.369664 -s 0 -d 1 -p tcp -e 1040 -c 2 -i 17 -a 2 -x {0.0 4.0 10 ------- null}
h -t 1.369664 -s 0 -d 1 -p tcp -e 1040 -c 2 -i 17 -a 2 -x {0.0 4.0 -1 ------- null}
- -t 1.370496 -s 0 -d 1 -p tcp -e 1040 -c 2 -i 18 -a 2 -x {0.0 4.0 11 ------- null}
h -t 1.370496 -s 0 -d 1 -p tcp -e 1040 -c 2 -i 18 -a 2 -x {0.0 4.0 -1 ------- null}
- -t 1.371328 -s 0 -d 1 -p tcp -e 1040 -c 2 -i 19 -a 2 -x {0.0 4.0 12 ------- null}
h -t 1.371328 -s 0 -d 1 -p tcp -e 1040 -c 2 -i 19 -a 2 -x {0.0 4.0 -1 ------- null}
- -t 1.37216 -s 0 -d 1 -p tcp -e 1040 -c 2 -i 20 -a 2 -x {0.0 4.0 13 ------- null}
h -t 1.37216 -s 0 -d 1 -p tcp -e 1040 -c 2 -i 20 -a 2 -x {0.0 4.0 -1 ------- null}
- -t 1.372992 -s 0 -d 1 -p tcp -e 1040 -c 2 -i 21 -a 2 -x {0.0 4.0 14 ------- null}
h -t 1.372992 -s 0 -d 1 -p tcp -e 1040 -c 2 -i 21 -a 2 -x {0.0 4.0 -1 ------- null}
r -t 1.378 -s 0 -d 1 -p tcp -e 1040 -c 2 -i 14 -a 2 -x {0.0 4.0 7 ------- null}
+ -t 1.378 -s 1 -d 2 -p tcp -e 1040 -c 2 -i 14 -a 2 -x {0.0 4.0 7 ------- null}
- -t 1.378 -s 1 -d 2 -p tcp -e 1040 -c 2 -i 14 -a 2 -x {0.0 4.0 7 ------- null}
h -t 1.378 -s 1 -d 2 -p tcp -e 1040 -c 2 -i 14 -a 2 -x {0.0 4.0 -1 ------- null}
r -t 1.378832 -s 0 -d 1 -p tcp -e 1040 -c 2 -i 15 -a 2 -x {0.0 4.0 8 ------- null}
+ -t 1.378832 -s 1 -d 2 -p tcp -e 1040 -c 2 -i 15 -a 2 -x {0.0 4.0 8 ------- null}
- -t 1.378832 -s 1 -d 2 -p tcp -e 1040 -c 2 -i 15 -a 2 -x {0.0 4.0 8 ------- null}
h -t 1.378832 -s 1 -d 2 -p tcp -e 1040 -c 2 -i 15 -a 2 -x {0.0 4.0 -1 ------- null}
r -t 1.379664 -s 0 -d 1 -p tcp -e 1040 -c 2 -i 16 -a 2 -x {0.0 4.0 9 ------- null}
+ -t 1.379664 -s 1 -d 2 -p tcp -e 1040 -c 2 -i 16 -a 2 -x {0.0 4.0 9 ------- null}
- -t 1.379664 -s 1 -d 2 -p tcp -e 1040 -c 2 -i 16 -a 2 -x {0.0 4.0 9 ------- null}
h -t 1.379664 -s 1 -d 2 -p tcp -e 1040 -c 2 -i 16 -a 2 -x {0.0 4.0 -1 ------- null}
r -t 1.380496 -s 0 -d 1 -p tcp -e 1040 -c 2 -i 17 -a 2 -x {0.0 4.0 10 ------- null}
+ -t 1.380496 -s 1 -d 2 -p tcp -e 1040 -c 2 -i 17 -a 2 -x {0.0 4.0 10 ------- null}
- -t 1.380496 -s 1 -d 2 -p tcp -e 1040 -c 2 -i 17 -a 2 -x {0.0 4.0 10 ------- null}
h -t 1.380496 -s 1 -d 2 -p tcp -e 1040 -c 2 -i 17 -a 2 -x {0.0 4.0 -1 ------- null}
r -t 1.381328 -s 0 -d 1 -p tcp -e 1040 -c 2 -i 18 -a 2 -x {0.0 4.0 11 ------- null}
+ -t 1.381328 -s 1 -d 2 -p tcp -e 1040 -c 2 -i 18 -a 2 -x {0.0 4.0 11 ------- null}
- -t 1.381328 -s 1 -d 2 -p tcp -e 1040 -c 2 -i 18 -a 2 -x {0.0 4.0 11 ------- null}
h -t 1.381328 -s 1 -d 2 -p tcp -e 1040 -c 2 -i 18 -a 2 -x {0.0 4.0 -1 ------- null}
r -t 1.38216 -s 0 -d 1 -p tcp -e 1040 -c 2 -i 19 -a 2 -x {0.0 4.0 12 ------- null}
+ -t 1.38216 -s 1 -d 2 -p tcp -e 1040 -c 2 -i 19 -a 2 -x {0.0 4.0 12 ------- null}
- -t 1.38216 -s 1 -d 2 -p tcp -e 1040 -c 2 -i 19 -a 2 -x {0.0 4.0 12 ------- null}
h -t 1.38216 -s 1 -d 2 -p tcp -e 1040 -c 2 -i 19 -a 2 -x {0.0 4.0 -1 ------- null}
r -t 1.382992 -s 0 -d 1 -p tcp -e 1040 -c 2 -i 20 -a 2 -x {0.0 4.0 13 ------- null}
+ -t 1.382992 -s 1 -d 2 -p tcp -e 1040 -c 2 -i 20 -a 2 -x {0.0 4.0 13 ------- null}
- -t 1.382992 -s 1 -d 2 -p tcp -e 1040 -c 2 -i 20 -a 2 -x {0.0 4.0 13 ------- null}
h -t 1.382992 -s 1 -d 2 -p tcp -e 1040 -c 2 -i 20 -a 2 -x {0.0 4.0 -1 ------- null}
r -t 1.383824 -s 0 -d 1 -p tcp -e 1040 -c 2 -i 21 -a 2 -x {0.0 4.0 14 ------- null}
+ -t 1.383824 -s 1 -d 2 -p tcp -e 1040 -c 2 -i 21 -a 2 -x {0.0 4.0 14 ------- null}
- -t 1.383824 -s 1 -d 2 -p tcp -e 1040 -c 2 -i 21 -a 2 -x {0.0 4.0 14 ------- null}
h -t 1.383824 -s 1 -d 2 -p tcp -e 1040 -c 2 -i 21 -a 2 -x {0.0 4.0 -1 ------- null}
r -t 1.398832 -s 1 -d 2 -p tcp -e 1040 -c 2 -i 14 -a 2 -x {0.0 4.0 7 ------- null}
+ -t 1.398832 -s 2 -d 3 -p tcp -e 1040 -c 2 -i 14 -a 2 -x {0.0 4.0 7 ------- null}
- -t 1.398832 -s 2 -d 3 -p tcp -e 1040 -c 2 -i 14 -a 2 -x {0.0 4.0 7 ------- null}
h -t 1.398832 -s 2 -d 3 -p tcp -e 1040 -c 2 -i 14 -a 2 -x {0.0 4.0 -1 ------- null}
r -t 1.399664 -s 1 -d 2 -p tcp -e 1040 -c 2 -i 15 -a 2 -x {0.0 4.0 8 ------- null}
+ -t 1.399664 -s 2 -d 3 -p tcp -e 1040 -c 2 -i 15 -a 2 -x {0.0 4.0 8 ------- null}
- -t 1.399664 -s 2 -d 3 -p tcp -e 1040 -c 2 -i 15 -a 2 -x {0.0 4.0 8 ------- null}
h -t 1.399664 -s 2 -d 3 -p tcp -e 1040 -c 2 -i 15 -a 2 -x {0.0 4.0 -1 ------- null}
r -t 1.400496 -s 1 -d 2 -p tcp -e 1040 -c 2 -i 16 -a 2 -x {0.0 4.0 9 ------- null}
+ -t 1.400496 -s 2 -d 3 -p tcp -e 1040 -c 2 -i 16 -a 2 -x {0.0 4.0 9 ------- null}
- -t 1.400496 -s 2 -d 3 -p tcp -e 1040 -c 2 -i 16 -a 2 -x {0.0 4.0 9 ------- null}
h -t 1.400496 -s 2 -d 3 -p tcp -e 1040 -c 2 -i 16 -a 2 -x {0.0 4.0 -1 ------- null}
r -t 1.401328 -s 1 -d 2 -p tcp -e 1040 -c 2 -i 17 -a 2 -x {0.0 4.0 10 ------- null}
+ -t 1.401328 -s 2 -d 3 -p tcp -e 1040 -c 2 -i 17 -a 2 -x {0.0 4.0 10 ------- null}
- -t 1.401328 -s 2 -d 3 -p tcp -e 1040 -c 2 -i 17 -a 2 -x {0.0 4.0 10 ------- null}
h -t 1.401328 -s 2 -d 3 -p tcp -e 1040 -c 2 -i 17 -a 2 -x {0.0 4.0 -1 ------- null}
r -t 1.40216 -s 1 -d 2 -p tcp -e 1040 -c 2 -i 18 -a 2 -x {0.0 4.0 11 ------- null}
+ -t 1.40216 -s 2 -d 3 -p tcp -e 1040 -c 2 -i 18 -a 2 -x {0.0 4.0 11 ------- null}
- -t 1.40216 -s 2 -d 3 -p tcp -e 1040 -c 2 -i 18 -a 2 -x {0.0 4.0 11 ------- null}
h -t 1.40216 -s 2 -d 3 -p tcp -e 1040 -c 2 -i 18 -a 2 -x {0.0 4.0 -1 ------- null}
r -t 1.402992 -s 1 -d 2 -p tcp -e 1040 -c 2 -i 19 -a 2 -x {0.0 4.0 12 ------- null}
+ -t 1.402992 -s 2 -d 3 -p tcp -e 1040 -c 2 -i 19 -a 2 -x {0.0 4.0 12 ------- null}
- -t 1.402992 -s 2 -d 3 -p tcp -e 1040 -c 2 -i 19 -a 2 -x {0.0 4.0 12 ------- null}
h -t 1.402992 -s 2 -d 3 -p tcp -e 1040 -c 2 -i 19 -a 2 -x {0.0 4.0 -1 ------- null}
r -t 1.403824 -s 1 -d 2 -p tcp -e 1040 -c 2 -i 20 -a 2 -x {0.0 4.0 13 ------- null}
+ -t 1.403824 -s 2 -d 3 -p tcp -e 1040 -c 2 -i 20 -a 2 -x {0.0 4.0 13 ------- null}
- -t 1.403824 -s 2 -d 3 -p tcp -e 1040 -c 2 -i 20 -a 2 -x {0.0 4.0 13 ------- null}
h -t 1.403824 -s 2 -d 3 -p tcp -e 1040 -c 2 -i 20 -a 2 -x {0.0 4.0 -1 ------- null}
r -t 1.404656 -s 1 -d 2 -p tcp -e 1040 -c 2 -i 21 -a 2 -x {0.0 4.0 14 ------- null}
+ -t 1.404656 -s 2 -d 3 -p tcp -e 1040 -c 2 -i 21 -a 2 -x {0.0 4.0 14 ------- null}
- -t 1.404656 -s 2 -d 3 -p tcp -e 1040 -c 2 -i 21 -a 2 -x {0.0 4.0 14 ------- null}
h -t 1.404656 -s 2 -d 3 -p tcp -e 1040 -c 2 -i 21 -a 2 -x {0.0 4.0 -1 ------- null}
r -t 1.419664 -s 2 -d 3 -p tcp -e 1040 -c 2 -i 14 -a 2 -x {0.0 4.0 7 ------- null}
+ -t 1.419664 -s 3 -d 4 -p tcp -e 1040 -c 2 -i 14 -a 2 -x {0.0 4.0 7 ------- null}
- -t 1.419664 -s 3 -d 4 -p tcp -e 1040 -c 2 -i 14 -a 2 -x {0.0 4.0 7 ------- null}
h -t 1.419664 -s 3 -d 4 -p tcp -e 1040 -c 2 -i 14 -a 2 -x {0.0 4.0 -1 ------- null}
r -t 1.420496 -s 2 -d 3 -p tcp -e 1040 -c 2 -i 15 -a 2 -x {0.0 4.0 8 ------- null}
+ -t 1.420496 -s 3 -d 4 -p tcp -e 1040 -c 2 -i 15 -a 2 -x {0.0 4.0 8 ------- null}
- -t 1.420496 -s 3 -d 4 -p tcp -e 1040 -c 2 -i 15 -a 2 -x {0.0 4.0 8 ------- null}
h -t 1.420496 -s 3 -d 4 -p tcp -e 1040 -c 2 -i 15 -a 2 -x {0.0 4.0 -1 ------- null}
r -t 1.421328 -s 2 -d 3 -p tcp -e 1040 -c 2 -i 16 -a 2 -x {0.0 4.0 9 ------- null}
+ -t 1.421328 -s 3 -d 4 -p tcp -e 1040 -c 2 -i 16 -a 2 -x {0.0 4.0 9 ------- null}
- -t 1.421328 -s 3 -d 4 -p tcp -e 1040 -c 2 -i 16 -a 2 -x {0.0 4.0 9 ------- null}
h -t 1.421328 -s 3 -d 4 -p tcp -e 1040 -c 2 -i 16 -a 2 -x {0.0 4.0 -1 ------- null}
r -t 1.42216 -s 2 -d 3 -p tcp -e 1040 -c 2 -i 17 -a 2 -x {0.0 4.0 10 ------- null}
+ -t 1.42216 -s 3 -d 4 -p tcp -e 1040 -c 2 -i 17 -a 2 -x {0.0 4.0 10 ------- null}
- -t 1.42216 -s 3 -d 4 -p tcp -e 1040 -c 2 -i 17 -a 2 -x {0.0 4.0 10 ------- null}
h -t 1.42216 -s 3 -d 4 -p tcp -e 1040 -c 2 -i 17 -a 2 -x {0.0 4.0 -1 ------- null}
r -t 1.422992 -s 2 -d 3 -p tcp -e 1040 -c 2 -i 18 -a 2 -x {0.0 4.0 11 ------- null}
+ -t 1.422992 -s 3 -d 4 -p tcp -e 1040 -c 2 -i 18 -a 2 -x {0.0 4.0 11 ------- null}
- -t 1.422992 -s 3 -d 4 -p tcp -e 1040 -c 2 -i 18 -a 2 -x {0.0 4.0 11 ------- null}
h -t 1.422992 -s 3 -d 4 -p tcp -e 1040 -c 2 -i 18 -a 2 -x {0.0 4.0 -1 ------- null}
r -t 1.423824 -s 2 -d 3 -p tcp -e 1040 -c 2 -i 19 -a 2 -x {0.0 4.0 12 ------- null}
+ -t 1.423824 -s 3 -d 4 -p tcp -e 1040 -c 2 -i 19 -a 2 -x {0.0 4.0 12 ------- null}
- -t 1.423824 -s 3 -d 4 -p tcp -e 1040 -c 2 -i 19 -a 2 -x {0.0 4.0 12 ------- null}
h -t 1.423824 -s 3 -d 4 -p tcp -e 1040 -c 2 -i 19 -a 2 -x {0.0 4.0 -1 ------- null}
r -t 1.424656 -s 2 -d 3 -p tcp -e 1040 -c 2 -i 20 -a 2 -x {0.0 4.0 13 ------- null}
+ -t 1.424656 -s 3 -d 4 -p tcp -e 1040 -c 2 -i 20 -a 2 -x {0.0 4.0 13 ------- null}
- -t 1.424656 -s 3 -d 4 -p tcp -e 1040 -c 2 -i 20 -a 2 -x {0.0 4.0 13 ------- null}
h -t 1.424656 -s 3 -d 4 -p tcp -e 1040 -c 2 -i 20 -a 2 -x {0.0 4.0 -1 ------- null}
r -t 1.425488 -s 2 -d 3 -p tcp -e 1040 -c 2 -i 21 -a 2 -x {0.0 4.0 14 ------- null}
+ -t 1.425488 -s 3 -d 4 -p tcp -e 1040 -c 2 -i 21 -a 2 -x {0.0 4.0 14 ------- null}
- -t 1.425488 -s 3 -d 4 -p tcp -e 1040 -c 2 -i 21 -a 2 -x {0.0 4.0 14 ------- null}
h -t 1.425488 -s 3 -d 4 -p tcp -e 1040 -c 2 -i 21 -a 2 -x {0.0 4.0 -1 ------- null}
r -t 1.430496 -s 3 -d 4 -p tcp -e 1040 -c 2 -i 14 -a 2 -x {0.0 4.0 7 ------- null}
+ -t 1.430496 -s 4 -d 3 -p ack -e 40 -c 2 -i 22 -a 2 -x {4.0 0.0 7 ------- null}
- -t 1.430496 -s 4 -d 3 -p ack -e 40 -c 2 -i 22 -a 2 -x {4.0 0.0 7 ------- null}
h -t 1.430496 -s 4 -d 3 -p ack -e 40 -c 2 -i 22 -a 2 -x {4.0 0.0 -1 ------- null}